# Forces     
# CofR       : (0.000000e+00 0.000000e+00 0.000000e+00)
# Time       forces(pressure viscous porous) moment(pressure viscous porous)
2.500000e-01	((-6.941930e-01 6.736011e-04 1.136964e-18) (6.074982e-04 8.603000e-09 -2.444536e-24) (0.000000e+00 0.000000e+00 0.000000e+00)) ((-3.368005e-04 -3.470965e-01 -2.607917e-09) (-4.301500e-09 3.037491e-04 2.283196e-08) (0.000000e+00 0.000000e+00 0.000000e+00))
5.000000e-01	((6.454163e-02 -5.267602e-05 2.206907e-19) (5.904867e-04 1.335037e-08 -1.815589e-25) (0.000000e+00 0.000000e+00 0.000000e+00)) ((2.633801e-05 3.227081e-02 -1.064665e-09) (-6.675183e-09 2.952434e-04 1.986734e-08) (0.000000e+00 0.000000e+00 0.000000e+00))
7.500000e-01	((9.873507e-02 -6.344689e-04 2.416945e-19) (5.652800e-04 1.599279e-08 3.001727e-25) (0.000000e+00 0.000000e+00 0.000000e+00)) ((3.172344e-04 4.936754e-02 -3.143598e-09) (-7.996394e-09 2.826400e-04 1.752376e-08) (0.000000e+00 0.000000e+00 0.000000e+00))
1.000000e+00	((1.426079e-01 -3.095704e-04 2.482466e-19) (5.348242e-04 8.818100e-09 9.447293e-25) (0.000000e+00 0.000000e+00 0.000000e+00)) ((1.547852e-04 7.130395e-02 1.091280e-09) (-4.409050e-09 2.674121e-04 1.573234e-08) (0.000000e+00 0.000000e+00 0.000000e+00))
1.250000e+00	((2.007674e-01 -3.739547e-04 2.470936e-19) (5.039222e-04 1.244299e-09 1.451328e-24) (0.000000e+00 0.000000e+00 0.000000e+00)) ((1.869774e-04 1.003837e-01 -9.128012e-10) (-6.221494e-10 2.519611e-04 1.492088e-08) (0.000000e+00 0.000000e+00 0.000000e+00))
1.500000e+00	((2.807728e-01 -1.723093e-04 2.407759e-19) (4.778532e-04 -4.420784e-10 1.594979e-24) (0.000000e+00 0.000000e+00 0.000000e+00)) ((8.615465e-05 1.403864e-01 1.104379e-09) (2.210392e-10 2.389266e-04 1.578980e-08) (0.000000e+00 0.000000e+00 0.000000e+00))
1.750000e+00	((3.715992e-01 -5.373970e-04 2.297598e-19) (4.584662e-04 2.401099e-09 1.963232e-24) (0.000000e+00 0.000000e+00 0.000000e+00)) ((2.686985e-04 1.857996e-01 -7.099512e-09) (-1.200549e-09 2.292331e-04 1.590055e-08) (0.000000e+00 0.000000e+00 0.000000e+00))
2.000000e+00	((4.886752e-01 2.927938e-04 2.138530e-19) (4.444935e-04 4.444457e-10 2.032590e-24) (0.000000e+00 0.000000e+00 0.000000e+00)) ((-1.463969e-04 2.443376e-01 5.125285e-09) (-2.222228e-10 2.222468e-04 1.744372e-08) (0.000000e+00 0.000000e+00 0.000000e+00))
2.250000e+00	((6.159326e-01 -7.306811e-04 1.967663e-19) (4.294162e-04 3.153840e-09 1.914797e-24) (0.000000e+00 0.000000e+00 0.000000e+00)) ((3.653406e-04 3.079663e-01 -3.747286e-09) (-1.576920e-09 2.147081e-04 1.458744e-08) (0.000000e+00 0.000000e+00 0.000000e+00))
2.500000e+00	((7.429684e-01 7.444754e-05 1.800596e-19) (4.134598e-04 -4.328991e-09 1.328711e-24) (0.000000e+00 0.000000e+00 0.000000e+00)) ((-3.722377e-05 3.714842e-01 4.038794e-09) (2.164495e-09 2.067299e-04 1.090653e-08) (0.000000e+00 0.000000e+00 0.000000e+00))
2.750000e+00	((8.471288e-01 -7.121647e-04 1.641800e-19) (4.008129e-04 9.811679e-10 1.183328e-24) (0.000000e+00 0.000000e+00 0.000000e+00)) ((3.560823e-04 4.235644e-01 -2.284871e-09) (-4.905839e-10 2.004065e-04 9.068081e-09) (0.000000e+00 0.000000e+00 0.000000e+00))
3.000000e+00	((9.116959e-01 -2.429099e-04 1.530536e-19) (3.910881e-04 -8.722007e-09 1.237555e-24) (0.000000e+00 0.000000e+00 0.000000e+00)) ((1.214550e-04 4.558479e-01 -3.827530e-09) (4.361003e-09 1.955441e-04 7.553725e-09) (0.000000e+00 0.000000e+00 0.000000e+00))
3.250000e+00	((9.397592e-01 5.950130e-04 1.432070e-19) (3.825324e-04 -9.991072e-09 5.922166e-25) (0.000000e+00 0.000000e+00 0.000000e+00)) ((-2.975065e-04 4.698796e-01 1.109203e-08) (4.995536e-09 1.912662e-04 7.112302e-09) (0.000000e+00 0.000000e+00 0.000000e+00))
3.500000e+00	((9.371347e-01 -1.099504e-03 1.360432e-19) (3.757532e-04 -6.604255e-10 1.000366e-24) (0.000000e+00 0.000000e+00 0.000000e+00)) ((5.497519e-04 4.685673e-01 -9.019601e-09) (3.302128e-10 1.878766e-04 3.329071e-09) (0.000000e+00 0.000000e+00 0.000000e+00))
3.750000e+00	((9.183549e-01 -9.864137e-04 1.312182e-19) (3.705056e-04 -1.533862e-08 2.265512e-26) (0.000000e+00 0.000000e+00 0.000000e+00)) ((4.932068e-04 4.591774e-01 -1.186934e-08) (7.669309e-09 1.852528e-04 7.804776e-10) (0.000000e+00 0.000000e+00 0.000000e+00))
4.000000e+00	((8.881251e-01 -1.113840e-04 1.261881e-19) (3.655581e-04 -1.209166e-08 3.352988e-25) (0.000000e+00 0.000000e+00 0.000000e+00)) ((5.569202e-05 4.440625e-01 6.089122e-09) (6.045829e-09 1.827791e-04 -2.506014e-09) (0.000000e+00 0.000000e+00 0.000000e+00))
4.250000e+00	((8.503757e-01 -6.317482e-04 1.238172e-19) (3.614471e-04 -1.248150e-08 -2.016253e-25) (0.000000e+00 0.000000e+00 0.000000e+00)) ((3.158741e-04 4.251879e-01 -2.146872e-09) (6.240749e-09 1.807235e-04 -6.167083e-09) (0.000000e+00 0.000000e+00 0.000000e+00))
4.500000e+00	((8.101700e-01 -9.742324e-04 1.221333e-19) (3.581102e-04 -2.165401e-08 7.851366e-26) (0.000000e+00 0.000000e+00 0.000000e+00)) ((4.871162e-04 4.050850e-01 -1.110537e-08) (1.082701e-08 1.790551e-04 -7.142574e-09) (0.000000e+00 0.000000e+00 0.000000e+00))
4.750000e+00	((7.735605e-01 -1.315127e-04 1.204935e-19) (3.547266e-04 -1.315132e-08 -9.924430e-26) (0.000000e+00 0.000000e+00 0.000000e+00)) ((6.575633e-05 3.867802e-01 1.944729e-09) (6.575661e-09 1.773633e-04 -9.928940e-09) (0.000000e+00 0.000000e+00 0.000000e+00))
5.000000e+00	((7.482472e-01 -5.491683e-04 1.175510e-19) (3.510193e-04 -2.884860e-08 1.745399e-26) (0.000000e+00 0.000000e+00 0.000000e+00)) ((2.745842e-04 3.741236e-01 -5.870196e-09) (1.442430e-08 1.755096e-04 -1.044204e-08) (0.000000e+00 0.000000e+00 0.000000e+00))
5.250000e+00	((7.268774e-01 -5.294045e-04 1.156632e-19) (3.471456e-04 -3.828707e-08 -1.718549e-25) (0.000000e+00 0.000000e+00 0.000000e+00)) ((2.647023e-04 3.634387e-01 -7.477717e-09) (1.914353e-08 1.735728e-04 -1.015160e-08) (0.000000e+00 0.000000e+00 0.000000e+00))
5.500000e+00	((7.097010e-01 1.596184e-04 1.145484e-19) (3.428078e-04 -4.610065e-08 -4.468569e-25) (0.000000e+00 0.000000e+00 0.000000e+00)) ((-7.980921e-05 3.548505e-01 6.255056e-09) (2.305032e-08 1.714039e-04 -1.104657e-08) (0.000000e+00 0.000000e+00 0.000000e+00))
5.750000e+00	((7.005537e-01 -4.461101e-04 1.125655e-19) (3.381761e-04 -4.179415e-08 -1.937303e-25) (0.000000e+00 0.000000e+00 0.000000e+00)) ((2.230551e-04 3.502768e-01 -1.716532e-10) (2.089708e-08 1.690881e-04 -1.049968e-08) (0.000000e+00 0.000000e+00 0.000000e+00))
6.000000e+00	((7.043324e-01 -1.630628e-04 1.081739e-19) (3.341501e-04 -6.059049e-08 -1.863637e-25) (0.000000e+00 0.000000e+00 0.000000e+00)) ((8.153138e-05 3.521662e-01 -1.149583e-09) (3.029524e-08 1.670750e-04 -1.121531e-08) (0.000000e+00 0.000000e+00 0.000000e+00))
6.250000e+00	((7.179784e-01 3.809716e-04 1.034224e-19) (3.304213e-04 -6.858032e-08 -4.423316e-25) (0.000000e+00 0.000000e+00 0.000000e+00)) ((-1.904858e-04 3.589892e-01 9.748614e-09) (3.429016e-08 1.652107e-04 -1.303713e-08) (0.000000e+00 0.000000e+00 0.000000e+00))
6.500000e+00	((7.345640e-01 -6.752348e-04 1.000165e-19) (3.269346e-04 -7.421658e-08 -4.884873e-25) (0.000000e+00 0.000000e+00 0.000000e+00)) ((3.376174e-04 3.672820e-01 1.360031e-09) (3.710829e-08 1.634673e-04 -1.257443e-08) (0.000000e+00 0.000000e+00 0.000000e+00))
6.750000e+00	((7.413483e-01 -1.852181e-03 9.767100e-20) (3.233933e-04 -7.810032e-08 -3.690556e-25) (0.000000e+00 0.000000e+00 0.000000e+00)) ((9.260907e-04 3.706741e-01 -1.318728e-08) (3.905016e-08 1.616967e-04 -9.043625e-09) (0.000000e+00 0.000000e+00 0.000000e+00))
7.000000e+00	((7.388362e-01 -8.980878e-04 9.592959e-20) (3.197451e-04 -8.214125e-08 -7.018171e-25) (0.000000e+00 0.000000e+00 0.000000e+00)) ((4.490439e-04 3.694181e-01 -4.423595e-10) (4.107062e-08 1.598725e-04 -2.413806e-09) (0.000000e+00 0.000000e+00 0.000000e+00))
7.250000e+00	((7.349877e-01 -7.469142e-04 9.443495e-20) (3.158260e-04 -9.113536e-08 -7.565768e-25) (0.000000e+00 0.000000e+00 0.000000e+00)) ((3.734571e-04 3.674939e-01 4.426121e-09) (4.556768e-08 1.579130e-04 -1.190980e-09) (0.000000e+00 0.000000e+00 0.000000e+00))
7.500000e+00	((7.342571e-01 -1.104066e-03 9.281105e-20) (3.117146e-04 -1.102906e-07 -6.633566e-25) (0.000000e+00 0.000000e+00 0.000000e+00)) ((5.520329e-04 3.671286e-01 -2.822434e-09) (5.514531e-08 1.558573e-04 2.263181e-09) (0.000000e+00 0.000000e+00 0.000000e+00))
7.750000e+00	((7.400931e-01 -7.407526e-04 9.034629e-20) (3.075597e-04 -1.283698e-07 -6.765873e-25) (0.000000e+00 0.000000e+00 0.000000e+00)) ((3.703763e-04 3.700465e-01 4.130846e-09) (6.418490e-08 1.537799e-04 1.010579e-08) (0.000000e+00 0.000000e+00 0.000000e+00))
8.000000e+00	((7.502965e-01 -6.699359e-04 8.893644e-20) (3.033630e-04 -1.334056e-07 -3.242633e-25) (0.000000e+00 0.000000e+00 0.000000e+00)) ((3.349679e-04 3.751483e-01 9.944135e-09) (6.670278e-08 1.516815e-04 2.565246e-08) (0.000000e+00 0.000000e+00 0.000000e+00))
8.250000e+00	((7.627353e-01 -8.077670e-04 8.536750e-20) (2.999496e-04 -1.555332e-07 -2.246021e-25) (0.000000e+00 0.000000e+00 0.000000e+00)) ((4.038835e-04 3.813677e-01 5.740355e-09) (7.776659e-08 1.499748e-04 3.867167e-08) (0.000000e+00 0.000000e+00 0.000000e+00))
8.500000e+00	((7.711266e-01 -7.580109e-04 8.254996e-20) (2.973213e-04 -1.736224e-07 -2.102314e-25) (0.000000e+00 0.000000e+00 0.000000e+00)) ((3.790054e-04 3.855633e-01 2.429965e-09) (8.681118e-08 1.486607e-04 4.933357e-08) (0.000000e+00 0.000000e+00 0.000000e+00))
