# Forces     
# CofR       : (0.000000e+00 0.000000e+00 0.000000e+00)
# Time       forces(pressure viscous porous) moment(pressure viscous porous)
1.000000e-02	((-1.847875e+02 3.095763e-01 2.482264e-16) (6.134741e-03 1.102133e-07 -2.033720e-23) (0.000000e+00 0.000000e+00 0.000000e+00)) ((-1.547882e-01 -9.239374e+01 -1.852563e-07) (-5.510663e-08 3.067370e-03 8.617314e-08) (0.000000e+00 0.000000e+00 0.000000e+00))
2.000000e-02	((-8.955334e-01 -6.572682e-03 1.562127e-17) (6.096337e-03 1.305552e-07 5.429942e-24) (0.000000e+00 0.000000e+00 0.000000e+00)) ((3.286341e-03 -4.477667e-01 -9.637062e-08) (-6.527759e-08 3.048169e-03 8.007429e-08) (0.000000e+00 0.000000e+00 0.000000e+00))
3.000000e-02	((2.462341e+00 -9.735474e-03 1.998837e-17) (6.045873e-03 1.351624e-07 7.819090e-24) (0.000000e+00 0.000000e+00 0.000000e+00)) ((4.867737e-03 1.231170e+00 -8.502938e-08) (-6.758118e-08 3.022936e-03 7.516978e-08) (0.000000e+00 0.000000e+00 0.000000e+00))
4.000000e-02	((4.378522e+00 -9.080040e-03 2.215052e-17) (5.987932e-03 1.382802e-07 9.788036e-24) (0.000000e+00 0.000000e+00 0.000000e+00)) ((4.540020e-03 2.189261e+00 -8.029600e-08) (-6.914008e-08 2.993966e-03 7.049807e-08) (0.000000e+00 0.000000e+00 0.000000e+00))
5.000000e-02	((5.685736e+00 -8.934217e-03 2.348214e-17) (5.917148e-03 1.406711e-07 1.145655e-23) (0.000000e+00 0.000000e+00 0.000000e+00)) ((4.467108e-03 2.842868e+00 -7.680015e-08) (-7.033553e-08 2.958574e-03 6.583429e-08) (0.000000e+00 0.000000e+00 0.000000e+00))
6.000000e-02	((6.745769e+00 -1.231670e-02 2.429930e-17) (5.835869e-03 1.375059e-07 1.298315e-23) (0.000000e+00 0.000000e+00 0.000000e+00)) ((6.158350e-03 3.372885e+00 -6.315416e-08) (-6.875293e-08 2.917934e-03 6.133053e-08) (0.000000e+00 0.000000e+00 0.000000e+00))
7.000000e-02	((7.751608e+00 -4.111184e-03 2.485382e-17) (5.746785e-03 1.390471e-07 1.449550e-23) (0.000000e+00 0.000000e+00 0.000000e+00)) ((2.055592e-03 3.875804e+00 -5.357672e-08) (-6.952353e-08 2.873392e-03 5.706426e-08) (0.000000e+00 0.000000e+00 0.000000e+00))
8.000000e-02	((8.860229e+00 -1.024398e-02 2.525485e-17) (5.651881e-03 1.434301e-07 1.614792e-23) (0.000000e+00 0.000000e+00 0.000000e+00)) ((5.121991e-03 4.430114e+00 -4.800162e-08) (-7.171504e-08 2.825940e-03 5.317019e-08) (0.000000e+00 0.000000e+00 0.000000e+00))
9.000000e-02	((1.019337e+01 -7.780613e-03 2.547869e-17) (5.552832e-03 1.413628e-07 1.786102e-23) (0.000000e+00 0.000000e+00 0.000000e+00)) ((3.890307e-03 5.096686e+00 -4.451289e-08) (-7.068139e-08 2.776416e-03 4.971777e-08) (0.000000e+00 0.000000e+00 0.000000e+00))
1.000000e-01	((1.180315e+01 -1.124056e-02 2.559928e-17) (5.450843e-03 1.372906e-07 1.964208e-23) (0.000000e+00 0.000000e+00 0.000000e+00)) ((5.620281e-03 5.901577e+00 -4.381903e-08) (-6.864532e-08 2.725422e-03 4.569057e-08) (0.000000e+00 0.000000e+00 0.000000e+00))
1.100000e-01	((1.341791e+01 -9.962223e-03 2.562139e-17) (5.348001e-03 1.266897e-07 2.152598e-23) (0.000000e+00 0.000000e+00 0.000000e+00)) ((4.981112e-03 6.708953e+00 -3.958486e-08) (-6.334487e-08 2.674001e-03 4.132900e-08) (0.000000e+00 0.000000e+00 0.000000e+00))
1.200000e-01	((1.559315e+01 -3.626005e-03 2.558762e-17) (5.249933e-03 1.222076e-07 2.347361e-23) (0.000000e+00 0.000000e+00 0.000000e+00)) ((1.813002e-03 7.796574e+00 -3.833240e-08) (-6.110382e-08 2.624967e-03 3.784583e-08) (0.000000e+00 0.000000e+00 0.000000e+00))
1.300000e-01	((1.800004e+01 -1.466454e-02 2.548541e-17) (5.156141e-03 1.154547e-07 2.527818e-23) (0.000000e+00 0.000000e+00 0.000000e+00)) ((7.332269e-03 9.000019e+00 -3.537439e-08) (-5.772737e-08 2.578071e-03 3.536914e-08) (0.000000e+00 0.000000e+00 0.000000e+00))
1.400000e-01	((2.052163e+01 -2.040582e-02 2.530126e-17) (5.069855e-03 1.035144e-07 2.662305e-23) (0.000000e+00 0.000000e+00 0.000000e+00)) ((1.020291e-02 1.026082e+01 -2.858377e-08) (-5.175720e-08 2.534928e-03 3.369234e-08) (0.000000e+00 0.000000e+00 0.000000e+00))
1.500000e-01	((2.325053e+01 -1.426494e-02 2.504037e-17) (4.992632e-03 9.520133e-08 2.784231e-23) (0.000000e+00 0.000000e+00 0.000000e+00)) ((7.132470e-03 1.162526e+01 -1.882492e-08) (-4.760066e-08 2.496316e-03 3.296086e-08) (0.000000e+00 0.000000e+00 0.000000e+00))
1.600000e-01	((2.615538e+01 -1.038878e-02 2.472955e-17) (4.923696e-03 9.069324e-08 2.907083e-23) (0.000000e+00 0.000000e+00 0.000000e+00)) ((5.194392e-03 1.307769e+01 -4.811995e-09) (-4.534662e-08 2.461848e-03 3.242630e-08) (0.000000e+00 0.000000e+00 0.000000e+00))
1.700000e-01	((2.919834e+01 -1.027740e-02 2.436484e-17) (4.862873e-03 8.778690e-08 2.985463e-23) (0.000000e+00 0.000000e+00 0.000000e+00)) ((5.138701e-03 1.459917e+01 -1.552190e-08) (-4.389345e-08 2.431436e-03 3.362191e-08) (0.000000e+00 0.000000e+00 0.000000e+00))
1.800000e-01	((3.250367e+01 -5.982011e-03 2.396354e-17) (4.809521e-03 8.545052e-08 3.130598e-23) (0.000000e+00 0.000000e+00 0.000000e+00)) ((2.991005e-03 1.625184e+01 1.500506e-08) (-4.272526e-08 2.404761e-03 3.229103e-08) (0.000000e+00 0.000000e+00 0.000000e+00))
1.900000e-01	((3.641651e+01 -9.921693e-03 2.347190e-17) (4.760801e-03 8.541814e-08 3.202368e-23) (0.000000e+00 0.000000e+00 0.000000e+00)) ((4.960847e-03 1.820825e+01 1.163339e-08) (-4.270907e-08 2.380400e-03 3.260991e-08) (0.000000e+00 0.000000e+00 0.000000e+00))
2.000000e-01	((4.071874e+01 -1.449959e-02 2.292388e-17) (4.714393e-03 7.953700e-08 3.221889e-23) (0.000000e+00 0.000000e+00 0.000000e+00)) ((7.249794e-03 2.035937e+01 1.140471e-08) (-3.976850e-08 2.357197e-03 3.092381e-08) (0.000000e+00 0.000000e+00 0.000000e+00))
2.100000e-01	((4.495860e+01 -1.360731e-02 2.236451e-17) (4.663212e-03 7.480314e-08 3.322538e-23) (0.000000e+00 0.000000e+00 0.000000e+00)) ((6.803657e-03 2.247930e+01 2.927868e-08) (-3.740157e-08 2.331606e-03 3.388321e-08) (0.000000e+00 0.000000e+00 0.000000e+00))
2.200000e-01	((4.909372e+01 -1.043432e-02 2.177032e-17) (4.605683e-03 6.450702e-08 3.373973e-23) (0.000000e+00 0.000000e+00 0.000000e+00)) ((5.217160e-03 2.454686e+01 1.589552e-08) (-3.225351e-08 2.302841e-03 2.331555e-08) (0.000000e+00 0.000000e+00 0.000000e+00))
2.300000e-01	((5.336759e+01 -9.619964e-03 2.120813e-17) (4.547589e-03 6.504271e-08 3.346761e-23) (0.000000e+00 0.000000e+00 0.000000e+00)) ((4.809982e-03 2.668380e+01 5.056700e-09) (-3.252136e-08 2.273794e-03 2.189258e-08) (0.000000e+00 0.000000e+00 0.000000e+00))
2.400000e-01	((5.778875e+01 -1.017338e-02 2.065889e-17) (4.491256e-03 6.416025e-08 3.266271e-23) (0.000000e+00 0.000000e+00 0.000000e+00)) ((5.086688e-03 2.889437e+01 3.749498e-08) (-3.208012e-08 2.245628e-03 2.323683e-08) (0.000000e+00 0.000000e+00 0.000000e+00))
2.500000e-01	((6.171471e+01 -9.770225e-03 2.010742e-17) (4.435114e-03 5.781079e-08 3.155898e-23) (0.000000e+00 0.000000e+00 0.000000e+00)) ((4.885112e-03 3.085735e+01 4.963239e-08) (-2.890539e-08 2.217557e-03 2.163264e-08) (0.000000e+00 0.000000e+00 0.000000e+00))
2.600000e-01	((6.472732e+01 -9.312039e-03 1.960640e-17) (4.386315e-03 5.019355e-08 3.042372e-23) (0.000000e+00 0.000000e+00 0.000000e+00)) ((4.656019e-03 3.236366e+01 3.383288e-08) (-2.509678e-08 2.193157e-03 1.424771e-08) (0.000000e+00 0.000000e+00 0.000000e+00))
2.700000e-01	((6.755448e+01 -4.237928e-03 1.913035e-17) (4.344503e-03 4.691113e-08 2.946495e-23) (0.000000e+00 0.000000e+00 0.000000e+00)) ((2.118964e-03 3.377724e+01 -1.272221e-08) (-2.345556e-08 2.172251e-03 1.347539e-08) (0.000000e+00 0.000000e+00 0.000000e+00))
2.800000e-01	((6.980756e+01 -7.576447e-03 1.870801e-17) (4.307109e-03 4.712605e-08 2.821913e-23) (0.000000e+00 0.000000e+00 0.000000e+00)) ((3.788224e-03 3.490378e+01 2.240984e-08) (-2.356303e-08 2.153555e-03 1.356165e-08) (0.000000e+00 0.000000e+00 0.000000e+00))
2.900000e-01	((7.174170e+01 -3.857358e-04 1.832634e-17) (4.272402e-03 4.667300e-08 2.708779e-23) (0.000000e+00 0.000000e+00 0.000000e+00)) ((1.928679e-04 3.587085e+01 -1.290284e-07) (-2.333650e-08 2.136201e-03 1.524220e-08) (0.000000e+00 0.000000e+00 0.000000e+00))
3.000000e-01	((7.304396e+01 -8.011910e-03 1.794799e-17) (4.237891e-03 3.838062e-08 2.596225e-23) (0.000000e+00 0.000000e+00 0.000000e+00)) ((4.005955e-03 3.652198e+01 6.117855e-09) (-1.919031e-08 2.118946e-03 9.663459e-09) (0.000000e+00 0.000000e+00 0.000000e+00))
3.100000e-01	((7.366074e+01 -8.282536e-03 1.756652e-17) (4.206443e-03 4.116881e-08 2.648374e-23) (0.000000e+00 0.000000e+00 0.000000e+00)) ((4.141268e-03 3.683037e+01 -4.480666e-08) (-2.058441e-08 2.103222e-03 8.940622e-09) (0.000000e+00 0.000000e+00 0.000000e+00))
3.200000e-01	((7.423410e+01 -8.531672e-03 1.727224e-17) (4.178265e-03 4.203138e-08 2.558196e-23) (0.000000e+00 0.000000e+00 0.000000e+00)) ((4.265836e-03 3.711705e+01 -4.409890e-09) (-2.101569e-08 2.089132e-03 8.431521e-09) (0.000000e+00 0.000000e+00 0.000000e+00))
3.300000e-01	((7.427551e+01 -1.066614e-02 1.698915e-17) (4.151176e-03 4.164336e-08 2.477727e-23) (0.000000e+00 0.000000e+00 0.000000e+00)) ((5.333070e-03 3.713775e+01 -1.139862e-08) (-2.082168e-08 2.075588e-03 6.837980e-09) (0.000000e+00 0.000000e+00 0.000000e+00))
3.400000e-01	((7.398730e+01 -5.567902e-03 1.670663e-17) (4.125482e-03 4.807167e-08 2.464678e-23) (0.000000e+00 0.000000e+00 0.000000e+00)) ((2.783951e-03 3.699365e+01 5.994462e-09) (-2.403583e-08 2.062741e-03 4.989820e-09) (0.000000e+00 0.000000e+00 0.000000e+00))
3.500000e-01	((7.375198e+01 -8.320382e-03 1.640713e-17) (4.100955e-03 4.433443e-08 2.543930e-23) (0.000000e+00 0.000000e+00 0.000000e+00)) ((4.160191e-03 3.687599e+01 -2.850963e-08) (-2.216721e-08 2.050477e-03 4.148134e-09) (0.000000e+00 0.000000e+00 0.000000e+00))
3.600000e-01	((7.306256e+01 -1.017962e-02 1.613391e-17) (4.077238e-03 3.405636e-08 2.527156e-23) (0.000000e+00 0.000000e+00 0.000000e+00)) ((5.089808e-03 3.653128e+01 -4.730429e-08) (-1.702818e-08 2.038619e-03 -5.714649e-09) (0.000000e+00 0.000000e+00 0.000000e+00))
3.700000e-01	((7.260562e+01 -1.203051e-02 1.590303e-17) (4.055673e-03 2.373248e-08 2.428933e-23) (0.000000e+00 0.000000e+00 0.000000e+00)) ((6.015254e-03 3.630281e+01 -3.617101e-08) (-1.186624e-08 2.027836e-03 -1.627456e-08) (0.000000e+00 0.000000e+00 0.000000e+00))
3.800000e-01	((7.178249e+01 -1.153613e-02 1.570949e-17) (4.035410e-03 1.341032e-08 2.299986e-23) (0.000000e+00 0.000000e+00 0.000000e+00)) ((5.768063e-03 3.589124e+01 -3.401847e-08) (-6.705160e-09 2.017705e-03 -2.412928e-08) (0.000000e+00 0.000000e+00 0.000000e+00))
3.900000e-01	((7.078085e+01 -7.439639e-03 1.545854e-17) (4.016580e-03 1.177089e-08 2.242336e-23) (0.000000e+00 0.000000e+00 0.000000e+00)) ((3.719819e-03 3.539043e+01 -9.112042e-08) (-5.885446e-09 2.008290e-03 -2.660050e-08) (0.000000e+00 0.000000e+00 0.000000e+00))
4.000000e-01	((6.964649e+01 -1.300519e-02 1.533539e-17) (3.998717e-03 1.442518e-08 2.190785e-23) (0.000000e+00 0.000000e+00 0.000000e+00)) ((6.502597e-03 3.482324e+01 -5.329391e-08) (-7.212592e-09 1.999359e-03 -2.861179e-08) (0.000000e+00 0.000000e+00 0.000000e+00))
4.100000e-01	((6.853424e+01 -1.265410e-02 1.518225e-17) (3.981927e-03 1.601767e-08 2.123414e-23) (0.000000e+00 0.000000e+00 0.000000e+00)) ((6.327052e-03 3.426712e+01 -3.563358e-08) (-8.008834e-09 1.990963e-03 -2.717633e-08) (0.000000e+00 0.000000e+00 0.000000e+00))
4.200000e-01	((6.728568e+01 -1.027231e-02 1.506708e-17) (3.965489e-03 2.018694e-08 2.066726e-23) (0.000000e+00 0.000000e+00 0.000000e+00)) ((5.136153e-03 3.364284e+01 -8.310603e-09) (-1.009347e-08 1.982745e-03 -2.331922e-08) (0.000000e+00 0.000000e+00 0.000000e+00))
4.300000e-01	((6.604144e+01 -1.217369e-02 1.493341e-17) (3.949603e-03 3.276210e-08 2.009729e-23) (0.000000e+00 0.000000e+00 0.000000e+00)) ((6.086847e-03 3.302072e+01 -4.044815e-08) (-1.638105e-08 1.974801e-03 -1.753881e-08) (0.000000e+00 0.000000e+00 0.000000e+00))
4.400000e-01	((6.477987e+01 -1.299731e-02 1.483493e-17) (3.933556e-03 3.556387e-08 1.943874e-23) (0.000000e+00 0.000000e+00 0.000000e+00)) ((6.498653e-03 3.238993e+01 -5.415714e-08) (-1.778193e-08 1.966778e-03 -1.143500e-08) (0.000000e+00 0.000000e+00 0.000000e+00))
4.500000e-01	((6.352189e+01 -1.199839e-02 1.468612e-17) (3.916434e-03 3.337138e-08 1.884232e-23) (0.000000e+00 0.000000e+00 0.000000e+00)) ((5.999193e-03 3.176094e+01 -4.014400e-08) (-1.668569e-08 1.958217e-03 -6.385795e-09) (0.000000e+00 0.000000e+00 0.000000e+00))
4.600000e-01	((6.258196e+01 -1.093225e-02 1.454266e-17) (3.898170e-03 2.875801e-08 1.825743e-23) (0.000000e+00 0.000000e+00 0.000000e+00)) ((5.466125e-03 3.129098e+01 -3.262257e-08) (-1.437901e-08 1.949085e-03 -2.192226e-09) (0.000000e+00 0.000000e+00 0.000000e+00))
4.700000e-01	((6.167643e+01 -1.758003e-02 1.439112e-17) (3.879311e-03 2.337413e-08 1.769156e-23) (0.000000e+00 0.000000e+00 0.000000e+00)) ((8.790013e-03 3.083822e+01 -6.319126e-08) (-1.168707e-08 1.939656e-03 -1.158593e-08) (0.000000e+00 0.000000e+00 0.000000e+00))
4.800000e-01	((6.077713e+01 -1.229093e-02 1.420439e-17) (3.862560e-03 1.569446e-08 1.754784e-23) (0.000000e+00 0.000000e+00 0.000000e+00)) ((6.145463e-03 3.038857e+01 -2.332586e-08) (-7.847232e-09 1.931280e-03 -2.002267e-08) (0.000000e+00 0.000000e+00 0.000000e+00))
4.900000e-01	((6.004355e+01 -9.334286e-03 1.406242e-17) (3.847044e-03 1.742189e-08 1.728635e-23) (0.000000e+00 0.000000e+00 0.000000e+00)) ((4.667143e-03 3.002177e+01 -6.686507e-09) (-8.710943e-09 1.923522e-03 -2.420450e-08) (0.000000e+00 0.000000e+00 0.000000e+00))
5.000000e-01	((5.954904e+01 -1.226287e-02 1.388021e-17) (3.832164e-03 1.519743e-08 1.639898e-23) (0.000000e+00 0.000000e+00 0.000000e+00)) ((6.131437e-03 2.977452e+01 5.637900e-10) (-7.598713e-09 1.916082e-03 -2.612969e-08) (0.000000e+00 0.000000e+00 0.000000e+00))
5.100000e-01	((5.926364e+01 -2.174079e-02 1.367077e-17) (3.817457e-03 5.415083e-09 1.663848e-23) (0.000000e+00 0.000000e+00 0.000000e+00)) ((1.087039e-02 2.963182e+01 -4.828617e-08) (-2.707541e-09 1.908729e-03 -2.797088e-08) (0.000000e+00 0.000000e+00 0.000000e+00))
5.200000e-01	((5.928185e+01 -9.907553e-02 1.349999e-17) (3.802057e-03 4.270873e-10 1.669978e-23) (0.000000e+00 0.000000e+00 0.000000e+00)) ((4.953777e-02 2.964092e+01 -3.334521e-07) (-2.135436e-10 1.901029e-03 -2.896578e-08) (0.000000e+00 0.000000e+00 0.000000e+00))
5.300000e-01	((5.950190e+01 -1.467383e-01 1.335624e-17) (3.785797e-03 -7.851580e-09 1.623505e-23) (0.000000e+00 0.000000e+00 0.000000e+00)) ((7.336915e-02 2.975095e+01 -4.765441e-07) (3.925790e-09 1.892899e-03 -3.028847e-08) (0.000000e+00 0.000000e+00 0.000000e+00))
5.400000e-01	((5.971429e+01 -1.756539e-02 1.317785e-17) (3.769640e-03 -6.860422e-09 1.589521e-23) (0.000000e+00 0.000000e+00 0.000000e+00)) ((8.782696e-03 2.985715e+01 -7.744772e-08) (3.430211e-09 1.884820e-03 -2.973787e-08) (0.000000e+00 0.000000e+00 0.000000e+00))
5.500000e-01	((5.991416e+01 -1.119860e-02 1.301839e-17) (3.753526e-03 -8.896098e-09 1.549426e-23) (0.000000e+00 0.000000e+00 0.000000e+00)) ((5.599299e-03 2.995708e+01 -9.570307e-08) (4.448049e-09 1.876763e-03 -3.312823e-08) (0.000000e+00 0.000000e+00 0.000000e+00))
5.600000e-01	((5.992977e+01 -1.500063e-02 1.285579e-17) (3.737559e-03 -9.082110e-09 1.477375e-23) (0.000000e+00 0.000000e+00 0.000000e+00)) ((7.500313e-03 2.996489e+01 -1.112788e-07) (4.541055e-09 1.868779e-03 -3.366597e-08) (0.000000e+00 0.000000e+00 0.000000e+00))
5.700000e-01	((5.979082e+01 -1.341033e-02 1.270173e-17) (3.720812e-03 -6.894098e-09 1.466344e-23) (0.000000e+00 0.000000e+00 0.000000e+00)) ((6.705166e-03 2.989541e+01 -1.347532e-07) (3.447049e-09 1.860406e-03 -3.218534e-08) (0.000000e+00 0.000000e+00 0.000000e+00))
5.800000e-01	((5.960386e+01 -1.517333e-02 1.255795e-17) (3.703390e-03 1.346327e-09 1.467317e-23) (0.000000e+00 0.000000e+00 0.000000e+00)) ((7.586666e-03 2.980193e+01 -1.411371e-07) (-6.731634e-10 1.851695e-03 -2.908693e-08) (0.000000e+00 0.000000e+00 0.000000e+00))
5.900000e-01	((5.936463e+01 -1.377446e-02 1.242389e-17) (3.686217e-03 1.337930e-08 1.417892e-23) (0.000000e+00 0.000000e+00 0.000000e+00)) ((6.887228e-03 2.968232e+01 -1.508136e-07) (-6.689650e-09 1.843109e-03 -2.510803e-08) (0.000000e+00 0.000000e+00 0.000000e+00))
6.000000e-01	((5.918776e+01 -1.311370e-02 1.228694e-17) (3.668781e-03 2.155411e-08 1.373128e-23) (0.000000e+00 0.000000e+00 0.000000e+00)) ((6.556848e-03 2.959388e+01 -1.593867e-07) (-1.077705e-08 1.834391e-03 -2.000331e-08) (0.000000e+00 0.000000e+00 0.000000e+00))
6.100000e-01	((5.924446e+01 -1.222937e-02 1.216287e-17) (3.650368e-03 1.920815e-08 1.361871e-23) (0.000000e+00 0.000000e+00 0.000000e+00)) ((6.114686e-03 2.962223e+01 -1.424782e-07) (-9.604076e-09 1.825184e-03 -1.543630e-08) (0.000000e+00 0.000000e+00 0.000000e+00))
6.200000e-01	((5.962030e+01 -1.178276e-02 1.197706e-17) (3.630568e-03 1.687436e-08 1.401668e-23) (0.000000e+00 0.000000e+00 0.000000e+00)) ((5.891380e-03 2.981015e+01 -1.150357e-07) (-8.437182e-09 1.815284e-03 -9.478133e-09) (0.000000e+00 0.000000e+00 0.000000e+00))
6.300000e-01	((6.012702e+01 -8.737458e-03 1.174555e-17) (3.609909e-03 1.920030e-08 1.473332e-23) (0.000000e+00 0.000000e+00 0.000000e+00)) ((4.368729e-03 3.006351e+01 -8.099775e-08) (-9.600149e-09 1.804954e-03 -9.556586e-10) (0.000000e+00 0.000000e+00 0.000000e+00))
6.400000e-01	((6.079988e+01 -1.679117e-02 1.155940e-17) (3.588765e-03 2.074564e-08 1.550197e-23) (0.000000e+00 0.000000e+00 0.000000e+00)) ((8.395583e-03 3.039994e+01 -1.042269e-07) (-1.037282e-08 1.794383e-03 6.710512e-09) (0.000000e+00 0.000000e+00 0.000000e+00))
6.500000e-01	((6.157367e+01 -1.077940e-02 1.137216e-17) (3.565958e-03 2.040673e-08 1.596488e-23) (0.000000e+00 0.000000e+00 0.000000e+00)) ((5.389699e-03 3.078683e+01 -6.317922e-08) (-1.020336e-08 1.782979e-03 1.046690e-08) (0.000000e+00 0.000000e+00 0.000000e+00))
6.600000e-01	((6.249979e+01 -1.519104e-02 1.117307e-17) (3.544246e-03 7.059487e-09 1.603920e-23) (0.000000e+00 0.000000e+00 0.000000e+00)) ((7.595520e-03 3.124989e+01 -6.427880e-08) (-3.529744e-09 1.772123e-03 -1.718012e-08) (0.000000e+00 0.000000e+00 0.000000e+00))
6.700000e-01	((6.350830e+01 -9.245005e-03 1.090792e-17) (3.524504e-03 4.447085e-09 1.687731e-23) (0.000000e+00 0.000000e+00 0.000000e+00)) ((4.622502e-03 3.175415e+01 -5.692347e-08) (-2.223543e-09 1.762252e-03 -2.692854e-08) (0.000000e+00 0.000000e+00 0.000000e+00))
6.800000e-01	((6.448387e+01 -1.275892e-02 1.071717e-17) (3.505297e-03 8.124802e-09 1.714612e-23) (0.000000e+00 0.000000e+00 0.000000e+00)) ((6.379459e-03 3.224193e+01 -8.068467e-08) (-4.062401e-09 1.752649e-03 -3.343344e-08) (0.000000e+00 0.000000e+00 0.000000e+00))
6.900000e-01	((6.547649e+01 -1.521213e-02 1.055929e-17) (3.486289e-03 3.618467e-09 1.699113e-23) (0.000000e+00 0.000000e+00 0.000000e+00)) ((7.606065e-03 3.273824e+01 -9.232856e-08) (-1.809233e-09 1.743144e-03 -3.722078e-08) (0.000000e+00 0.000000e+00 0.000000e+00))
7.000000e-01	((6.641180e+01 -1.736512e-02 1.035019e-17) (3.468703e-03 7.350368e-09 1.671193e-23) (0.000000e+00 0.000000e+00 0.000000e+00)) ((8.682559e-03 3.320590e+01 -1.116485e-07) (-3.675184e-09 1.734352e-03 -3.648727e-08) (0.000000e+00 0.000000e+00 0.000000e+00))
7.100000e-01	((6.721098e+01 -1.472357e-02 1.015383e-17) (3.452730e-03 1.187014e-08 1.660336e-23) (0.000000e+00 0.000000e+00 0.000000e+00)) ((7.361783e-03 3.360549e+01 -1.625816e-07) (-5.935069e-09 1.726365e-03 -3.404762e-08) (0.000000e+00 0.000000e+00 0.000000e+00))
7.200000e-01	((6.784396e+01 -1.357123e-02 1.003224e-17) (3.438159e-03 1.308816e-08 1.619750e-23) (0.000000e+00 0.000000e+00 0.000000e+00)) ((6.785613e-03 3.392198e+01 -1.857202e-07) (-6.544081e-09 1.719080e-03 -3.096951e-08) (0.000000e+00 0.000000e+00 0.000000e+00))
7.300000e-01	((6.828137e+01 -1.232440e-02 9.918471e-18) (3.424606e-03 2.313436e-08 1.578949e-23) (0.000000e+00 0.000000e+00 0.000000e+00)) ((6.162201e-03 3.414069e+01 -1.729070e-07) (-1.156718e-08 1.712303e-03 -3.680311e-08) (0.000000e+00 0.000000e+00 0.000000e+00))
7.400000e-01	((6.840467e+01 -9.476934e-03 9.833260e-18) (3.411492e-03 1.972742e-08 1.594038e-23) (0.000000e+00 0.000000e+00 0.000000e+00)) ((4.738467e-03 3.420233e+01 -1.335068e-07) (-9.863708e-09 1.705746e-03 -4.479422e-08) (0.000000e+00 0.000000e+00 0.000000e+00))
7.500000e-01	((6.834920e+01 -7.595620e-03 9.753880e-18) (3.399124e-03 2.696200e-08 1.599643e-23) (0.000000e+00 0.000000e+00 0.000000e+00)) ((3.797810e-03 3.417460e+01 -9.929982e-08) (-1.348100e-08 1.699562e-03 -4.536993e-08) (0.000000e+00 0.000000e+00 0.000000e+00))
7.600000e-01	((6.810983e+01 -5.529367e-03 9.693044e-18) (3.387051e-03 2.110138e-08 1.600504e-23) (0.000000e+00 0.000000e+00 0.000000e+00)) ((2.764683e-03 3.405491e+01 -3.253898e-08) (-1.055069e-08 1.693526e-03 -4.236281e-08) (0.000000e+00 0.000000e+00 0.000000e+00))
7.700000e-01	((6.784302e+01 -5.017629e-03 9.630761e-18) (3.373796e-03 2.056924e-08 1.606137e-23) (0.000000e+00 0.000000e+00 0.000000e+00)) ((2.508815e-03 3.392151e+01 2.070616e-08) (-1.028462e-08 1.686898e-03 -3.809669e-08) (0.000000e+00 0.000000e+00 0.000000e+00))
7.800000e-01	((6.754482e+01 -6.089851e-03 9.535612e-18) (3.359383e-03 3.412762e-08 1.643857e-23) (0.000000e+00 0.000000e+00 0.000000e+00)) ((3.044926e-03 3.377241e+01 9.513115e-08) (-1.706381e-08 1.679691e-03 -3.514720e-08) (0.000000e+00 0.000000e+00 0.000000e+00))
7.900000e-01	((6.722232e+01 -7.161064e-03 9.456105e-18) (3.344775e-03 4.467829e-08 1.715539e-23) (0.000000e+00 0.000000e+00 0.000000e+00)) ((3.580532e-03 3.361116e+01 1.407844e-07) (-2.233914e-08 1.672387e-03 -3.438179e-08) (0.000000e+00 0.000000e+00 0.000000e+00))
8.000000e-01	((6.706249e+01 -9.105718e-03 9.376491e-18) (3.329833e-03 4.131496e-08 1.749652e-23) (0.000000e+00 0.000000e+00 0.000000e+00)) ((4.552859e-03 3.353124e+01 1.874931e-07) (-2.065748e-08 1.664916e-03 -3.462861e-08) (0.000000e+00 0.000000e+00 0.000000e+00))
8.100000e-01	((6.706452e+01 -1.385449e-02 9.337955e-18) (3.314585e-03 3.349645e-08 1.772105e-23) (0.000000e+00 0.000000e+00 0.000000e+00)) ((6.927245e-03 3.353226e+01 1.769301e-07) (-1.674822e-08 1.657292e-03 -4.018933e-08) (0.000000e+00 0.000000e+00 0.000000e+00))
8.200000e-01	((6.721070e+01 -1.058208e-02 9.253744e-18) (3.299372e-03 1.186741e-08 1.773054e-23) (0.000000e+00 0.000000e+00 0.000000e+00)) ((5.291040e-03 3.360535e+01 2.434761e-07) (-5.933703e-09 1.649686e-03 -4.571906e-08) (0.000000e+00 0.000000e+00 0.000000e+00))
8.300000e-01	((6.746694e+01 -1.094066e-02 9.146734e-18) (3.283962e-03 -2.150302e-08 1.746883e-23) (0.000000e+00 0.000000e+00 0.000000e+00)) ((5.470331e-03 3.373347e+01 2.710008e-07) (1.075151e-08 1.641981e-03 -4.734451e-08) (0.000000e+00 0.000000e+00 0.000000e+00))
8.400000e-01	((6.787634e+01 -2.460200e-03 8.993891e-18) (3.267656e-03 -3.402974e-08 1.762263e-23) (0.000000e+00 0.000000e+00 0.000000e+00)) ((1.230100e-03 3.393817e+01 3.429823e-07) (1.701487e-08 1.633828e-03 -4.203336e-08) (0.000000e+00 0.000000e+00 0.000000e+00))
8.500000e-01	((6.832478e+01 -4.188918e-04 8.880241e-18) (3.250857e-03 -4.872922e-08 1.786574e-23) (0.000000e+00 0.000000e+00 0.000000e+00)) ((2.094459e-04 3.416239e+01 3.430968e-07) (2.436461e-08 1.625429e-03 -2.869971e-08) (0.000000e+00 0.000000e+00 0.000000e+00))
8.600000e-01	((6.874722e+01 -1.857187e-03 8.810907e-18) (3.233927e-03 -5.316944e-08 1.835704e-23) (0.000000e+00 0.000000e+00 0.000000e+00)) ((9.285937e-04 3.437361e+01 2.990334e-07) (2.658472e-08 1.616964e-03 -4.796156e-09) (0.000000e+00 0.000000e+00 0.000000e+00))
8.700000e-01	((6.912797e+01 2.339114e-03 8.698545e-18) (3.218130e-03 -7.331897e-08 1.865574e-23) (0.000000e+00 0.000000e+00 0.000000e+00)) ((-1.169557e-03 3.456399e+01 3.362994e-07) (3.665949e-08 1.609065e-03 -3.242074e-09) (0.000000e+00 0.000000e+00 0.000000e+00))
8.800000e-01	((6.947011e+01 1.380172e-03 8.583381e-18) (3.204684e-03 -7.941247e-08 1.832971e-23) (0.000000e+00 0.000000e+00 0.000000e+00)) ((-6.900861e-04 3.473505e+01 3.330606e-07) (3.970624e-08 1.602342e-03 5.250544e-09) (0.000000e+00 0.000000e+00 0.000000e+00))
8.900000e-01	((6.969775e+01 7.949522e-03 8.466564e-18) (3.192840e-03 -8.537818e-08 1.842777e-23) (0.000000e+00 0.000000e+00 0.000000e+00)) ((-3.974761e-03 3.484888e+01 2.867658e-07) (4.268909e-08 1.596420e-03 1.222127e-08) (0.000000e+00 0.000000e+00 0.000000e+00))
9.000000e-01	((6.986876e+01 8.574558e-03 8.377659e-18) (3.182039e-03 -8.978620e-08 1.870128e-23) (0.000000e+00 0.000000e+00 0.000000e+00)) ((-4.287279e-03 3.493438e+01 2.380020e-07) (4.489310e-08 1.591020e-03 1.524029e-08) (0.000000e+00 0.000000e+00 0.000000e+00))
9.100000e-01	((7.000306e+01 9.165545e-03 8.278585e-18) (3.172153e-03 -9.787941e-08 1.891893e-23) (0.000000e+00 0.000000e+00 0.000000e+00)) ((-4.582772e-03 3.500153e+01 1.695146e-07) (4.893971e-08 1.586077e-03 1.650261e-08) (0.000000e+00 0.000000e+00 0.000000e+00))
9.200000e-01	((6.995120e+01 8.956626e-03 8.177157e-18) (3.162484e-03 -9.538480e-08 1.950323e-23) (0.000000e+00 0.000000e+00 0.000000e+00)) ((-4.478313e-03 3.497560e+01 7.849916e-08) (4.769240e-08 1.581242e-03 2.092812e-08) (0.000000e+00 0.000000e+00 0.000000e+00))
9.300000e-01	((6.988731e+01 9.013658e-03 8.109534e-18) (3.152996e-03 -9.837838e-08 1.960302e-23) (0.000000e+00 0.000000e+00 0.000000e+00)) ((-4.506829e-03 3.494366e+01 1.260511e-08) (4.918919e-08 1.576498e-03 2.366250e-08) (0.000000e+00 0.000000e+00 0.000000e+00))
9.400000e-01	((6.983311e+01 7.821928e-03 8.034265e-18) (3.143662e-03 -1.007390e-07 1.969281e-23) (0.000000e+00 0.000000e+00 0.000000e+00)) ((-3.910964e-03 3.491655e+01 -4.971427e-08) (5.036950e-08 1.571831e-03 2.846816e-08) (0.000000e+00 0.000000e+00 0.000000e+00))
9.500000e-01	((6.975831e+01 4.891847e-03 7.951740e-18) (3.134221e-03 -1.032224e-07 1.987670e-23) (0.000000e+00 0.000000e+00 0.000000e+00)) ((-2.445924e-03 3.487915e+01 -7.751205e-08) (5.161120e-08 1.567110e-03 3.500704e-08) (0.000000e+00 0.000000e+00 0.000000e+00))
9.600000e-01	((6.968951e+01 9.505542e-03 7.860119e-18) (3.124270e-03 -9.881868e-08 2.002053e-23) (0.000000e+00 0.000000e+00 0.000000e+00)) ((-4.752771e-03 3.484476e+01 -3.838834e-08) (4.940934e-08 1.562135e-03 3.978438e-08) (0.000000e+00 0.000000e+00 0.000000e+00))
9.700000e-01	((6.951866e+01 1.119157e-02 7.818149e-18) (3.113589e-03 -9.061597e-08 2.023824e-23) (0.000000e+00 0.000000e+00 0.000000e+00)) ((-5.595785e-03 3.475933e+01 2.882431e-08) (4.530799e-08 1.556794e-03 4.905844e-08) (0.000000e+00 0.000000e+00 0.000000e+00))
9.800000e-01	((6.934551e+01 1.469488e-02 7.749191e-18) (3.102640e-03 -7.264600e-08 2.033518e-23) (0.000000e+00 0.000000e+00 0.000000e+00)) ((-7.347441e-03 3.467276e+01 1.158651e-07) (3.632300e-08 1.551320e-03 5.899563e-08) (0.000000e+00 0.000000e+00 0.000000e+00))
9.900000e-01	((6.922676e+01 1.615488e-02 7.692642e-18) (3.091826e-03 -4.501509e-08 2.051386e-23) (0.000000e+00 0.000000e+00 0.000000e+00)) ((-8.077439e-03 3.461338e+01 2.441986e-07) (2.250754e-08 1.545913e-03 6.500524e-08) (0.000000e+00 0.000000e+00 0.000000e+00))
1.000000e+00	((6.914560e+01 2.425654e-02 7.629810e-18) (3.081067e-03 -4.926697e-09 2.068160e-23) (0.000000e+00 0.000000e+00 0.000000e+00)) ((-1.212827e-02 3.457280e+01 3.269068e-07) (2.463349e-09 1.540534e-03 6.953786e-08) (0.000000e+00 0.000000e+00 0.000000e+00))
1.010000e+00	((6.911198e+01 3.503946e-02 7.572658e-18) (3.070319e-03 4.696675e-08 2.067350e-23) (0.000000e+00 0.000000e+00 0.000000e+00)) ((-1.751973e-02 3.455599e+01 4.250984e-07) (-2.348338e-08 1.535159e-03 6.998322e-08) (0.000000e+00 0.000000e+00 0.000000e+00))
1.020000e+00	((6.912412e+01 3.747034e-02 7.536512e-18) (3.059700e-03 9.284528e-08 2.086127e-23) (0.000000e+00 0.000000e+00 0.000000e+00)) ((-1.873517e-02 3.456206e+01 4.665477e-07) (-4.642264e-08 1.529850e-03 6.317731e-08) (0.000000e+00 0.000000e+00 0.000000e+00))
1.030000e+00	((6.909043e+01 4.723876e-02 7.504401e-18) (3.049327e-03 1.228590e-07 2.077793e-23) (0.000000e+00 0.000000e+00 0.000000e+00)) ((-2.361938e-02 3.454521e+01 4.748675e-07) (-6.142950e-08 1.524664e-03 4.955676e-08) (0.000000e+00 0.000000e+00 0.000000e+00))
1.040000e+00	((6.905259e+01 5.767884e-02 7.459584e-18) (3.039441e-03 1.406710e-07 2.070062e-23) (0.000000e+00 0.000000e+00 0.000000e+00)) ((-2.883942e-02 3.452630e+01 4.376891e-07) (-7.033550e-08 1.519721e-03 3.374317e-08) (0.000000e+00 0.000000e+00 0.000000e+00))
1.050000e+00	((6.900876e+01 6.231707e-02 7.431636e-18) (3.030388e-03 1.713454e-07 2.083984e-23) (0.000000e+00 0.000000e+00 0.000000e+00)) ((-3.115853e-02 3.450438e+01 3.758287e-07) (-8.567272e-08 1.515194e-03 2.238978e-08) (0.000000e+00 0.000000e+00 0.000000e+00))
1.060000e+00	((6.888837e+01 6.501141e-02 7.418978e-18) (3.021971e-03 2.102043e-07 2.089494e-23) (0.000000e+00 0.000000e+00 0.000000e+00)) ((-3.250570e-02 3.444418e+01 2.557239e-07) (-1.051022e-07 1.510986e-03 1.632067e-08) (0.000000e+00 0.000000e+00 0.000000e+00))
1.070000e+00	((6.872298e+01 6.972937e-02 7.398927e-18) (3.014524e-03 2.453882e-07 2.129119e-23) (0.000000e+00 0.000000e+00 0.000000e+00)) ((-3.486468e-02 3.436149e+01 1.568053e-07) (-1.226941e-07 1.507262e-03 1.712418e-08) (0.000000e+00 0.000000e+00 0.000000e+00))
1.080000e+00	((6.854199e+01 7.614925e-02 7.388769e-18) (3.007828e-03 2.949264e-07 2.144052e-23) (0.000000e+00 0.000000e+00 0.000000e+00)) ((-3.807462e-02 3.427099e+01 6.273640e-08) (-1.474632e-07 1.503914e-03 1.619016e-08) (0.000000e+00 0.000000e+00 0.000000e+00))
1.090000e+00	((6.837518e+01 7.429338e-02 7.351340e-18) (3.001001e-03 3.520353e-07 2.127254e-23) (0.000000e+00 0.000000e+00 0.000000e+00)) ((-3.714669e-02 3.418759e+01 1.961761e-08) (-1.760176e-07 1.500501e-03 1.022314e-08) (0.000000e+00 0.000000e+00 0.000000e+00))
1.100000e+00	((6.821459e+01 7.993916e-02 7.320906e-18) (2.992940e-03 4.012699e-07 2.113674e-23) (0.000000e+00 0.000000e+00 0.000000e+00)) ((-3.996958e-02 3.410729e+01 -1.539220e-08) (-2.006350e-07 1.496470e-03 1.623403e-09) (0.000000e+00 0.000000e+00 0.000000e+00))
1.110000e+00	((6.802647e+01 6.946888e-02 7.317366e-18) (2.984370e-03 4.440096e-07 2.081115e-23) (0.000000e+00 0.000000e+00 0.000000e+00)) ((-3.473444e-02 3.401324e+01 2.298176e-08) (-2.220048e-07 1.492185e-03 -5.848139e-09) (0.000000e+00 0.000000e+00 0.000000e+00))
1.120000e+00	((6.782207e+01 7.831760e-02 7.308887e-18) (2.975269e-03 4.975676e-07 2.058194e-23) (0.000000e+00 0.000000e+00 0.000000e+00)) ((-3.915880e-02 3.391104e+01 7.549839e-08) (-2.487838e-07 1.487635e-03 -1.291088e-08) (0.000000e+00 0.000000e+00 0.000000e+00))