# Forces     
# CofR       : (0.000000e+00 0.000000e+00 0.000000e+00)
# Time       forces(pressure viscous porous) moment(pressure viscous porous)
1.000000e-01	((-1.917965e+07 5.012616e+04 -8.788106e-12) (7.367946e+02 1.574702e-01 1.405281e-17) (0.000000e+00 0.000000e+00 0.000000e+00)) ((-2.506308e+06 -9.589826e+08 -4.217854e-01) (-7.873511e+00 3.683973e+04 1.074412e+01) (0.000000e+00 0.000000e+00 0.000000e+00))
2.000000e-01	((-4.677804e+05 -5.437621e+02 3.489461e-13) (7.375124e+02 1.577012e-01 4.097050e-18) (0.000000e+00 0.000000e+00 0.000000e+00)) ((2.718811e+04 -2.338902e+07 -3.593348e-01) (-7.885058e+00 3.687562e+04 1.074016e+01) (0.000000e+00 0.000000e+00 0.000000e+00))
3.000000e-01	((-2.783422e+05 -1.136465e+03 1.386131e-13) (7.385873e+02 1.573410e-01 4.390417e-18) (0.000000e+00 0.000000e+00 0.000000e+00)) ((5.682324e+04 -1.391711e+07 -3.776005e-01) (-7.867049e+00 3.692937e+04 1.073668e+01) (0.000000e+00 0.000000e+00 0.000000e+00))
4.000000e-01	((-2.093153e+05 -2.108303e+03 4.838493e-14) (7.396742e+02 1.563777e-01 4.504045e-18) (0.000000e+00 0.000000e+00 0.000000e+00)) ((1.054152e+05 -1.046576e+07 -4.242023e-01) (-7.818883e+00 3.698371e+04 1.073277e+01) (0.000000e+00 0.000000e+00 0.000000e+00))
5.000000e-01	((-1.539011e+05 -1.713859e+03 5.817884e-15) (7.407422e+02 1.550378e-01 4.549204e-18) (0.000000e+00 0.000000e+00 0.000000e+00)) ((8.569294e+04 -7.695056e+06 -4.214358e-01) (-7.751891e+00 3.703711e+04 1.072829e+01) (0.000000e+00 0.000000e+00 0.000000e+00))
6.000000e-01	((-1.053616e+05 -1.727050e+03 -1.778948e-14) (7.417933e+02 1.537739e-01 4.566494e-18) (0.000000e+00 0.000000e+00 0.000000e+00)) ((8.635249e+04 -5.268080e+06 -4.177075e-01) (-7.688694e+00 3.708967e+04 1.072138e+01) (0.000000e+00 0.000000e+00 0.000000e+00))
7.000000e-01	((-6.539747e+04 -1.774547e+03 -3.359625e-14) (7.428290e+02 1.526625e-01 4.572063e-18) (0.000000e+00 0.000000e+00 0.000000e+00)) ((8.872733e+04 -3.269873e+06 -4.197720e-01) (-7.633125e+00 3.714145e+04 1.071136e+01) (0.000000e+00 0.000000e+00 0.000000e+00))
8.000000e-01	((-3.372392e+04 -1.885856e+03 -4.523320e-14) (7.438456e+02 1.515666e-01 4.572111e-18) (0.000000e+00 0.000000e+00 0.000000e+00)) ((9.429282e+04 -1.686196e+06 -4.223511e-01) (-7.578332e+00 3.719228e+04 1.069963e+01) (0.000000e+00 0.000000e+00 0.000000e+00))
9.000000e-01	((-1.043025e+04 -1.677410e+03 -5.492145e-14) (7.448390e+02 1.506117e-01 4.569842e-18) (0.000000e+00 0.000000e+00 0.000000e+00)) ((8.387052e+04 -5.215125e+05 -4.169070e-01) (-7.530584e+00 3.724195e+04 1.068588e+01) (0.000000e+00 0.000000e+00 0.000000e+00))
1.000000e+00	((6.793593e+03 -1.482447e+03 -6.318228e-14) (7.458056e+02 1.498140e-01 4.566595e-18) (0.000000e+00 0.000000e+00 0.000000e+00)) ((7.412233e+04 3.396797e+05 -4.099390e-01) (-7.490698e+00 3.729028e+04 1.067023e+01) (0.000000e+00 0.000000e+00 0.000000e+00))
1.100000e+00	((1.915979e+04 -1.373121e+03 -7.026300e-14) (7.467452e+02 1.491847e-01 4.562781e-18) (0.000000e+00 0.000000e+00 0.000000e+00)) ((6.865603e+04 9.579897e+05 -3.974088e-01) (-7.459236e+00 3.733726e+04 1.065242e+01) (0.000000e+00 0.000000e+00 0.000000e+00))
1.200000e+00	((2.870729e+04 -1.308521e+03 -7.668528e-14) (7.476592e+02 1.486571e-01 4.559249e-18) (0.000000e+00 0.000000e+00 0.000000e+00)) ((6.542606e+04 1.435365e+06 -3.895754e-01) (-7.432856e+00 3.738296e+04 1.063393e+01) (0.000000e+00 0.000000e+00 0.000000e+00))
1.300000e+00	((3.566894e+04 -1.318933e+03 -8.219478e-14) (7.485420e+02 1.482605e-01 4.555852e-18) (0.000000e+00 0.000000e+00 0.000000e+00)) ((6.594667e+04 1.783447e+06 -3.840742e-01) (-7.413026e+00 3.742710e+04 1.061468e+01) (0.000000e+00 0.000000e+00 0.000000e+00))
1.400000e+00	((4.127376e+04 -1.381375e+03 -8.689574e-14) (7.493939e+02 1.478262e-01 4.553047e-18) (0.000000e+00 0.000000e+00 0.000000e+00)) ((6.906877e+04 2.063688e+06 -3.736965e-01) (-7.391312e+00 3.746969e+04 1.059308e+01) (0.000000e+00 0.000000e+00 0.000000e+00))
1.500000e+00	((4.626479e+04 -1.325307e+03 -9.088933e-14) (7.502187e+02 1.474167e-01 4.551090e-18) (0.000000e+00 0.000000e+00 0.000000e+00)) ((6.626533e+04 2.313239e+06 -3.700925e-01) (-7.370836e+00 3.751094e+04 1.057147e+01) (0.000000e+00 0.000000e+00 0.000000e+00))
1.600000e+00	((5.056530e+04 -1.229598e+03 -9.476929e-14) (7.510146e+02 1.469915e-01 4.550783e-18) (0.000000e+00 0.000000e+00 0.000000e+00)) ((6.147989e+04 2.528265e+06 -3.587897e-01) (-7.349575e+00 3.755073e+04 1.054751e+01) (0.000000e+00 0.000000e+00 0.000000e+00))
1.700000e+00	((5.459096e+04 -1.278470e+03 -9.805365e-14) (7.517843e+02 1.465723e-01 4.551558e-18) (0.000000e+00 0.000000e+00 0.000000e+00)) ((6.392348e+04 2.729548e+06 -3.485530e-01) (-7.328616e+00 3.758921e+04 1.052268e+01) (0.000000e+00 0.000000e+00 0.000000e+00))
1.800000e+00	((5.840693e+04 -1.229734e+03 -1.008970e-13) (7.525309e+02 1.461377e-01 4.553321e-18) (0.000000e+00 0.000000e+00 0.000000e+00)) ((6.148669e+04 2.920347e+06 -3.390225e-01) (-7.306884e+00 3.762654e+04 1.049639e+01) (0.000000e+00 0.000000e+00 0.000000e+00))
1.900000e+00	((6.210270e+04 -1.158413e+03 -1.034441e-13) (7.532572e+02 1.456900e-01 4.556402e-18) (0.000000e+00 0.000000e+00 0.000000e+00)) ((5.792063e+04 3.105135e+06 -3.281499e-01) (-7.284500e+00 3.766286e+04 1.046934e+01) (0.000000e+00 0.000000e+00 0.000000e+00))
2.000000e+00	((6.561174e+04 -1.215504e+03 -1.056246e-13) (7.539667e+02 1.452145e-01 4.561076e-18) (0.000000e+00 0.000000e+00 0.000000e+00)) ((6.077521e+04 3.280587e+06 -3.200370e-01) (-7.260726e+00 3.769834e+04 1.044238e+01) (0.000000e+00 0.000000e+00 0.000000e+00))
2.100000e+00	((6.888215e+04 -1.252112e+03 -1.075567e-13) (7.546600e+02 1.448005e-01 4.567459e-18) (0.000000e+00 0.000000e+00 0.000000e+00)) ((6.260559e+04 3.444107e+06 -3.116304e-01) (-7.240027e+00 3.773300e+04 1.041639e+01) (0.000000e+00 0.000000e+00 0.000000e+00))
2.200000e+00	((7.213216e+04 -1.258499e+03 -1.093649e-13) (7.553384e+02 1.443738e-01 4.575748e-18) (0.000000e+00 0.000000e+00 0.000000e+00)) ((6.292494e+04 3.606608e+06 -3.009799e-01) (-7.218690e+00 3.776692e+04 1.039071e+01) (0.000000e+00 0.000000e+00 0.000000e+00))
2.300000e+00	((7.542597e+04 -1.252917e+03 -1.108698e-13) (7.560015e+02 1.439158e-01 4.585718e-18) (0.000000e+00 0.000000e+00 0.000000e+00)) ((6.264586e+04 3.771298e+06 -2.941257e-01) (-7.195791e+00 3.780008e+04 1.036544e+01) (0.000000e+00 0.000000e+00 0.000000e+00))
2.400000e+00	((7.856478e+04 -1.215375e+03 -1.122395e-13) (7.566494e+02 1.435955e-01 4.597467e-18) (0.000000e+00 0.000000e+00 0.000000e+00)) ((6.076873e+04 3.928239e+06 -2.799371e-01) (-7.179775e+00 3.783247e+04 1.034176e+01) (0.000000e+00 0.000000e+00 0.000000e+00))
2.500000e+00	((8.181215e+04 -1.141449e+03 -1.134552e-13) (7.572833e+02 1.431682e-01 4.610773e-18) (0.000000e+00 0.000000e+00 0.000000e+00)) ((5.707243e+04 4.090607e+06 -2.649500e-01) (-7.158409e+00 3.786416e+04 1.031784e+01) (0.000000e+00 0.000000e+00 0.000000e+00))
2.600000e+00	((8.491251e+04 -1.187096e+03 -1.145902e-13) (7.579017e+02 1.427488e-01 4.625444e-18) (0.000000e+00 0.000000e+00 0.000000e+00)) ((5.935480e+04 4.245625e+06 -2.646107e-01) (-7.137442e+00 3.789509e+04 1.029398e+01) (0.000000e+00 0.000000e+00 0.000000e+00))
2.700000e+00	((8.765019e+04 -1.216373e+03 -1.155798e-13) (7.585050e+02 1.425589e-01 4.641059e-18) (0.000000e+00 0.000000e+00 0.000000e+00)) ((6.081864e+04 4.382510e+06 -2.063562e-01) (-7.127946e+00 3.792525e+04 1.027278e+01) (0.000000e+00 0.000000e+00 0.000000e+00))
2.800000e+00	((9.065330e+04 -1.182470e+03 -1.166083e-13) (7.590979e+02 1.421386e-01 4.657876e-18) (0.000000e+00 0.000000e+00 0.000000e+00)) ((5.912351e+04 4.532665e+06 -2.460860e-01) (-7.106928e+00 3.795490e+04 1.025183e+01) (0.000000e+00 0.000000e+00 0.000000e+00))
2.900000e+00	((9.346114e+04 -1.181160e+03 -1.174767e-13) (7.596745e+02 1.416900e-01 4.675285e-18) (0.000000e+00 0.000000e+00 0.000000e+00)) ((5.905799e+04 4.673057e+06 -2.374795e-01) (-7.084498e+00 3.798373e+04 1.023035e+01) (0.000000e+00 0.000000e+00 0.000000e+00))
3.000000e+00	((9.622231e+04 -1.176221e+03 -1.182789e-13) (7.602351e+02 1.412502e-01 4.693253e-18) (0.000000e+00 0.000000e+00 0.000000e+00)) ((5.881105e+04 4.811116e+06 -2.289437e-01) (-7.062512e+00 3.801175e+04 1.020899e+01) (0.000000e+00 0.000000e+00 0.000000e+00))
3.100000e+00	((9.862931e+04 -1.165408e+03 -1.190270e-13) (7.607815e+02 1.410269e-01 4.711709e-18) (0.000000e+00 0.000000e+00 0.000000e+00)) ((5.827042e+04 4.931466e+06 -2.280818e-01) (-7.051343e+00 3.803907e+04 1.019020e+01) (0.000000e+00 0.000000e+00 0.000000e+00))
3.200000e+00	((1.013439e+05 -1.168153e+03 -1.197010e-13) (7.613171e+02 1.405565e-01 4.731286e-18) (0.000000e+00 0.000000e+00 0.000000e+00)) ((5.840767e+04 5.067195e+06 -2.108480e-01) (-7.027823e+00 3.806586e+04 1.017029e+01) (0.000000e+00 0.000000e+00 0.000000e+00))
3.300000e+00	((1.037539e+05 -1.163937e+03 -1.203518e-13) (7.618360e+02 1.400925e-01 4.750911e-18) (0.000000e+00 0.000000e+00 0.000000e+00)) ((5.819687e+04 5.187694e+06 -2.025101e-01) (-7.004625e+00 3.809180e+04 1.015052e+01) (0.000000e+00 0.000000e+00 0.000000e+00))
3.400000e+00	((1.060352e+05 -1.158309e+03 -1.209569e-13) (7.623390e+02 1.396287e-01 4.770577e-18) (0.000000e+00 0.000000e+00 0.000000e+00)) ((5.791545e+04 5.301760e+06 -1.944110e-01) (-6.981435e+00 3.811695e+04 1.013079e+01) (0.000000e+00 0.000000e+00 0.000000e+00))
3.500000e+00	((1.083219e+05 -1.176795e+03 -1.215767e-13) (7.628265e+02 1.391641e-01 4.790320e-18) (0.000000e+00 0.000000e+00 0.000000e+00)) ((5.883976e+04 5.416094e+06 -1.841357e-01) (-6.958207e+00 3.814132e+04 1.011217e+01) (0.000000e+00 0.000000e+00 0.000000e+00))
3.600000e+00	((1.102946e+05 -1.183302e+03 -1.220953e-13) (7.632988e+02 1.386748e-01 4.809876e-18) (0.000000e+00 0.000000e+00 0.000000e+00)) ((5.916511e+04 5.514729e+06 -1.788730e-01) (-6.933742e+00 3.816494e+04 1.009428e+01) (0.000000e+00 0.000000e+00 0.000000e+00))
3.700000e+00	((1.122808e+05 -1.187708e+03 -1.225922e-13) (7.637561e+02 1.381812e-01 4.829397e-18) (0.000000e+00 0.000000e+00 0.000000e+00)) ((5.938538e+04 5.614039e+06 -1.716767e-01) (-6.909060e+00 3.818781e+04 1.007657e+01) (0.000000e+00 0.000000e+00 0.000000e+00))
3.800000e+00	((1.140311e+05 -1.166019e+03 -1.230601e-13) (7.642004e+02 1.377493e-01 4.848920e-18) (0.000000e+00 0.000000e+00 0.000000e+00)) ((5.830096e+04 5.701554e+06 -1.634760e-01) (-6.887464e+00 3.821002e+04 1.005968e+01) (0.000000e+00 0.000000e+00 0.000000e+00))
3.900000e+00	((1.159645e+05 -1.155809e+03 -1.234712e-13) (7.646348e+02 1.373080e-01 4.868789e-18) (0.000000e+00 0.000000e+00 0.000000e+00)) ((5.779044e+04 5.798227e+06 -1.611270e-01) (-6.865398e+00 3.823174e+04 1.004274e+01) (0.000000e+00 0.000000e+00 0.000000e+00))
4.000000e+00	((1.177992e+05 -1.154125e+03 -1.238780e-13) (7.650529e+02 1.368349e-01 4.888422e-18) (0.000000e+00 0.000000e+00 0.000000e+00)) ((5.770624e+04 5.889958e+06 -1.528979e-01) (-6.841744e+00 3.825264e+04 1.002567e+01) (0.000000e+00 0.000000e+00 0.000000e+00))
4.100000e+00	((1.195594e+05 -1.154484e+03 -1.242606e-13) (7.654550e+02 1.363504e-01 4.907921e-18) (0.000000e+00 0.000000e+00 0.000000e+00)) ((5.772418e+04 5.977970e+06 -1.453571e-01) (-6.817521e+00 3.827275e+04 1.000889e+01) (0.000000e+00 0.000000e+00 0.000000e+00))
4.200000e+00	((1.212095e+05 -1.151551e+03 -1.246187e-13) (7.658415e+02 1.358592e-01 4.927322e-18) (0.000000e+00 0.000000e+00 0.000000e+00)) ((5.757757e+04 6.060475e+06 -1.385567e-01) (-6.792961e+00 3.829208e+04 9.992264e+00) (0.000000e+00 0.000000e+00 0.000000e+00))
4.300000e+00	((1.228141e+05 -1.148825e+03 -1.249296e-13) (7.662127e+02 1.353597e-01 4.946628e-18) (0.000000e+00 0.000000e+00 0.000000e+00)) ((5.744127e+04 6.140703e+06 -1.308501e-01) (-6.767983e+00 3.831064e+04 9.975845e+00) (0.000000e+00 0.000000e+00 0.000000e+00))
4.400000e+00	((1.244357e+05 -1.152211e+03 -1.252928e-13) (7.665688e+02 1.348489e-01 4.966000e-18) (0.000000e+00 0.000000e+00 0.000000e+00)) ((5.761053e+04 6.221785e+06 -1.253671e-01) (-6.742447e+00 3.832844e+04 9.959639e+00) (0.000000e+00 0.000000e+00 0.000000e+00))
4.500000e+00	((1.259357e+05 -1.151374e+03 -1.255910e-13) (7.669099e+02 1.343277e-01 4.985269e-18) (0.000000e+00 0.000000e+00 0.000000e+00)) ((5.756871e+04 6.296783e+06 -1.192246e-01) (-6.716386e+00 3.834550e+04 9.943629e+00) (0.000000e+00 0.000000e+00 0.000000e+00))
4.600000e+00	((1.273805e+05 -1.134695e+03 -1.258624e-13) (7.672363e+02 1.337944e-01 5.004526e-18) (0.000000e+00 0.000000e+00 0.000000e+00)) ((5.673474e+04 6.369024e+06 -1.107703e-01) (-6.689721e+00 3.836182e+04 9.927837e+00) (0.000000e+00 0.000000e+00 0.000000e+00))
4.700000e+00	((1.288360e+05 -1.151487e+03 -1.261257e-13) (7.675481e+02 1.332493e-01 5.023831e-18) (0.000000e+00 0.000000e+00 0.000000e+00)) ((5.757436e+04 6.441801e+06 -1.064727e-01) (-6.662463e+00 3.837740e+04 9.912273e+00) (0.000000e+00 0.000000e+00 0.000000e+00))
4.800000e+00	((1.302179e+05 -1.167596e+03 -1.263713e-13) (7.678454e+02 1.326975e-01 5.043154e-18) (0.000000e+00 0.000000e+00 0.000000e+00)) ((5.837981e+04 6.510894e+06 -1.007745e-01) (-6.634873e+00 3.839227e+04 9.897379e+00) (0.000000e+00 0.000000e+00 0.000000e+00))
4.900000e+00	((1.315506e+05 -1.164700e+03 -1.266009e-13) (7.681283e+02 1.321425e-01 5.062479e-18) (0.000000e+00 0.000000e+00 0.000000e+00)) ((5.823500e+04 6.577530e+06 -9.497496e-02) (-6.607125e+00 3.840642e+04 9.883645e+00) (0.000000e+00 0.000000e+00 0.000000e+00))
5.000000e+00	((1.328796e+05 -1.144094e+03 -1.268178e-13) (7.683969e+02 1.315799e-01 5.081846e-18) (0.000000e+00 0.000000e+00 0.000000e+00)) ((5.720471e+04 6.643981e+06 -8.872879e-02) (-6.578993e+00 3.841985e+04 9.869924e+00) (0.000000e+00 0.000000e+00 0.000000e+00))
5.100000e+00	((1.341652e+05 -1.138736e+03 -1.270161e-13) (7.686514e+02 1.310108e-01 5.101210e-18) (0.000000e+00 0.000000e+00 0.000000e+00)) ((5.693680e+04 6.708260e+06 -8.501960e-02) (-6.550540e+00 3.843257e+04 9.856396e+00) (0.000000e+00 0.000000e+00 0.000000e+00))
5.200000e+00	((1.353166e+05 -1.171917e+03 -1.271727e-13) (7.688926e+02 1.304961e-01 5.120418e-18) (0.000000e+00 0.000000e+00 0.000000e+00)) ((5.859584e+04 6.765831e+06 -7.952838e-02) (-6.524804e+00 3.844463e+04 9.843867e+00) (0.000000e+00 0.000000e+00 0.000000e+00))
5.300000e+00	((1.366468e+05 -1.162862e+03 -1.273943e-13) (7.691219e+02 1.299855e-01 5.139465e-18) (0.000000e+00 0.000000e+00 0.000000e+00)) ((5.814308e+04 6.832342e+06 -7.469400e-02) (-6.499277e+00 3.845609e+04 9.832138e+00) (0.000000e+00 0.000000e+00 0.000000e+00))
5.400000e+00	((1.379403e+05 -1.157420e+03 -1.275292e-13) (7.693384e+02 1.294699e-01 5.158040e-18) (0.000000e+00 0.000000e+00 0.000000e+00)) ((5.787102e+04 6.897016e+06 -7.106400e-02) (-6.473496e+00 3.846692e+04 9.821157e+00) (0.000000e+00 0.000000e+00 0.000000e+00))
5.500000e+00	((1.391600e+05 -1.146591e+03 -1.276926e-13) (7.695414e+02 1.288713e-01 5.176302e-18) (0.000000e+00 0.000000e+00 0.000000e+00)) ((5.732954e+04 6.958001e+06 -6.633550e-02) (-6.443563e+00 3.847707e+04 9.809930e+00) (0.000000e+00 0.000000e+00 0.000000e+00))
5.600000e+00	((1.403903e+05 -1.151039e+03 -1.278354e-13) (7.697294e+02 1.282092e-01 5.194335e-18) (0.000000e+00 0.000000e+00 0.000000e+00)) ((5.755197e+04 7.019514e+06 -6.032257e-02) (-6.410459e+00 3.848647e+04 9.798111e+00) (0.000000e+00 0.000000e+00 0.000000e+00))
5.700000e+00	((1.415845e+05 -1.152729e+03 -1.279669e-13) (7.699027e+02 1.275475e-01 5.212179e-18) (0.000000e+00 0.000000e+00 0.000000e+00)) ((5.763644e+04 7.079226e+06 -5.497444e-02) (-6.377376e+00 3.849513e+04 9.786495e+00) (0.000000e+00 0.000000e+00 0.000000e+00))
5.800000e+00	((1.427796e+05 -1.155273e+03 -1.280887e-13) (7.700614e+02 1.268828e-01 5.229830e-18) (0.000000e+00 0.000000e+00 0.000000e+00)) ((5.776365e+04 7.138978e+06 -4.993558e-02) (-6.344138e+00 3.850307e+04 9.775090e+00) (0.000000e+00 0.000000e+00 0.000000e+00))
5.900000e+00	((1.439474e+05 -1.156686e+03 -1.282024e-13) (7.702058e+02 1.262099e-01 5.247253e-18) (0.000000e+00 0.000000e+00 0.000000e+00)) ((5.783432e+04 7.197368e+06 -4.235932e-02) (-6.310494e+00 3.851029e+04 9.763898e+00) (0.000000e+00 0.000000e+00 0.000000e+00))
6.000000e+00	((1.450775e+05 -1.152863e+03 -1.283261e-13) (7.703363e+02 1.255177e-01 5.264434e-18) (0.000000e+00 0.000000e+00 0.000000e+00)) ((5.764317e+04 7.253874e+06 -3.627544e-02) (-6.275883e+00 3.851681e+04 9.752918e+00) (0.000000e+00 0.000000e+00 0.000000e+00))
6.100000e+00	((1.462162e+05 -1.159441e+03 -1.284002e-13) (7.704530e+02 1.248186e-01 5.281241e-18) (0.000000e+00 0.000000e+00 0.000000e+00)) ((5.797205e+04 7.310811e+06 -3.176874e-02) (-6.240932e+00 3.852265e+04 9.742210e+00) (0.000000e+00 0.000000e+00 0.000000e+00))
6.200000e+00	((1.473675e+05 -1.165259e+03 -1.284989e-13) (7.705562e+02 1.241176e-01 5.297721e-18) (0.000000e+00 0.000000e+00 0.000000e+00)) ((5.826297e+04 7.368376e+06 -2.855435e-02) (-6.205880e+00 3.852781e+04 9.731786e+00) (0.000000e+00 0.000000e+00 0.000000e+00))
6.300000e+00	((1.484864e+05 -1.148382e+03 -1.285840e-13) (7.706456e+02 1.234125e-01 5.313753e-18) (0.000000e+00 0.000000e+00 0.000000e+00)) ((5.741912e+04 7.424320e+06 -2.375913e-02) (-6.170623e+00 3.853228e+04 9.721680e+00) (0.000000e+00 0.000000e+00 0.000000e+00))
6.400000e+00	((1.495960e+05 -1.181997e+03 -1.286623e-13) (7.707214e+02 1.227032e-01 5.329300e-18) (0.000000e+00 0.000000e+00 0.000000e+00)) ((5.909983e+04 7.479801e+06 -1.977651e-02) (-6.135160e+00 3.853607e+04 9.712009e+00) (0.000000e+00 0.000000e+00 0.000000e+00))
6.500000e+00	((1.506946e+05 -1.168265e+03 -1.287282e-13) (7.707835e+02 1.219866e-01 5.344291e-18) (0.000000e+00 0.000000e+00 0.000000e+00)) ((5.841323e+04 7.534729e+06 -1.450372e-02) (-6.099331e+00 3.853918e+04 9.702549e+00) (0.000000e+00 0.000000e+00 0.000000e+00))
6.600000e+00	((1.518038e+05 -1.173975e+03 -1.287771e-13) (7.708322e+02 1.212636e-01 5.358675e-18) (0.000000e+00 0.000000e+00 0.000000e+00)) ((5.869876e+04 7.590189e+06 -1.045753e-02) (-6.063182e+00 3.854161e+04 9.693441e+00) (0.000000e+00 0.000000e+00 0.000000e+00))
6.700000e+00	((1.529550e+05 -1.167502e+03 -1.288744e-13) (7.708674e+02 1.205426e-01 5.372513e-18) (0.000000e+00 0.000000e+00 0.000000e+00)) ((5.837511e+04 7.647750e+06 -6.463818e-03) (-6.027128e+00 3.854337e+04 9.684697e+00) (0.000000e+00 0.000000e+00 0.000000e+00))
6.800000e+00	((1.540448e+05 -1.178865e+03 -1.289354e-13) (7.708892e+02 1.197990e-01 5.385626e-18) (0.000000e+00 0.000000e+00 0.000000e+00)) ((5.894324e+04 7.702242e+06 -2.877396e-03) (-5.989952e+00 3.854446e+04 9.676252e+00) (0.000000e+00 0.000000e+00 0.000000e+00))
6.900000e+00	((1.552137e+05 -1.215355e+03 -1.289453e-13) (7.708976e+02 1.190611e-01 5.397978e-18) (0.000000e+00 0.000000e+00 0.000000e+00)) ((6.076775e+04 7.760687e+06 -8.772409e-03) (-5.953054e+00 3.854488e+04 9.668140e+00) (0.000000e+00 0.000000e+00 0.000000e+00))
7.000000e+00	((1.563029e+05 -1.219771e+03 -1.289939e-13) (7.708925e+02 1.187611e-01 5.409672e-18) (0.000000e+00 0.000000e+00 0.000000e+00)) ((6.098857e+04 7.815146e+06 -1.245057e-02) (-5.938057e+00 3.854463e+04 9.662470e+00) (0.000000e+00 0.000000e+00 0.000000e+00))
7.100000e+00	((1.574569e+05 -1.201317e+03 -1.290244e-13) (7.708736e+02 1.186396e-01 5.420655e-18) (0.000000e+00 0.000000e+00 0.000000e+00)) ((6.006583e+04 7.872844e+06 -8.059340e-03) (-5.931979e+00 3.854368e+04 9.658233e+00) (0.000000e+00 0.000000e+00 0.000000e+00))
7.200000e+00	((1.586216e+05 -1.178061e+03 -1.290741e-13) (7.708406e+02 1.181388e-01 5.431042e-18) (0.000000e+00 0.000000e+00 0.000000e+00)) ((5.890303e+04 7.931078e+06 3.738724e-03) (-5.906942e+00 3.854203e+04 9.654672e+00) (0.000000e+00 0.000000e+00 0.000000e+00))
7.300000e+00	((1.597778e+05 -1.174346e+03 -1.291015e-13) (7.707936e+02 1.175356e-01 5.440745e-18) (0.000000e+00 0.000000e+00 0.000000e+00)) ((5.871729e+04 7.988889e+06 7.537936e-03) (-5.876778e+00 3.853968e+04 9.649684e+00) (0.000000e+00 0.000000e+00 0.000000e+00))
7.400000e+00	((1.610321e+05 -1.207172e+03 -1.291351e-13) (7.707328e+02 1.169174e-01 5.449879e-18) (0.000000e+00 0.000000e+00 0.000000e+00)) ((6.035858e+04 8.051604e+06 1.064317e-02) (-5.845871e+00 3.853664e+04 9.645488e+00) (0.000000e+00 0.000000e+00 0.000000e+00))
7.500000e+00	((1.621931e+05 -1.187535e+03 -1.291561e-13) (7.706578e+02 1.162731e-01 5.458460e-18) (0.000000e+00 0.000000e+00 0.000000e+00)) ((5.937675e+04 8.109655e+06 1.513948e-02) (-5.813657e+00 3.853289e+04 9.642009e+00) (0.000000e+00 0.000000e+00 0.000000e+00))
7.600000e+00	((1.634657e+05 -1.204533e+03 -1.291364e-13) (7.705683e+02 1.157642e-01 5.466551e-18) (0.000000e+00 0.000000e+00 0.000000e+00)) ((6.022663e+04 8.173286e+06 2.272267e-02) (-5.788212e+00 3.852842e+04 9.640980e+00) (0.000000e+00 0.000000e+00 0.000000e+00))
7.700000e+00	((1.646859e+05 -1.202921e+03 -1.291624e-13) (7.704647e+02 1.153861e-01 5.474249e-18) (0.000000e+00 0.000000e+00 0.000000e+00)) ((6.014605e+04 8.234297e+06 2.211635e-02) (-5.769303e+00 3.852324e+04 9.643450e+00) (0.000000e+00 0.000000e+00 0.000000e+00))
7.800000e+00	((1.659765e+05 -1.197719e+03 -1.291597e-13) (7.703465e+02 1.149266e-01 5.481530e-18) (0.000000e+00 0.000000e+00 0.000000e+00)) ((5.988596e+04 8.298826e+06 2.272009e-02) (-5.746330e+00 3.851733e+04 9.647154e+00) (0.000000e+00 0.000000e+00 0.000000e+00))
7.900000e+00	((1.672576e+05 -1.204679e+03 -1.291602e-13) (7.702135e+02 1.144115e-01 5.488552e-18) (0.000000e+00 0.000000e+00 0.000000e+00)) ((6.023396e+04 8.362881e+06 2.369013e-02) (-5.720576e+00 3.851067e+04 9.651945e+00) (0.000000e+00 0.000000e+00 0.000000e+00))
8.000000e+00	((1.686029e+05 -1.212524e+03 -1.291663e-13) (7.700654e+02 1.138505e-01 5.495458e-18) (0.000000e+00 0.000000e+00 0.000000e+00)) ((6.062621e+04 8.430145e+06 2.528907e-02) (-5.692524e+00 3.850327e+04 9.657680e+00) (0.000000e+00 0.000000e+00 0.000000e+00))
8.100000e+00	((1.699964e+05 -1.216957e+03 -1.291485e-13) (7.699022e+02 1.132479e-01 5.502344e-18) (0.000000e+00 0.000000e+00 0.000000e+00)) ((6.084786e+04 8.499820e+06 2.630539e-02) (-5.662393e+00 3.849511e+04 9.664254e+00) (0.000000e+00 0.000000e+00 0.000000e+00))
8.200000e+00	((1.713542e+05 -1.238659e+03 -1.291587e-13) (7.697236e+02 1.130025e-01 5.509427e-18) (0.000000e+00 0.000000e+00 0.000000e+00)) ((6.193294e+04 8.567712e+06 2.930818e-02) (-5.650126e+00 3.848618e+04 9.672060e+00) (0.000000e+00 0.000000e+00 0.000000e+00))
8.300000e+00	((1.727718e+05 -1.230637e+03 -1.292086e-13) (7.695295e+02 1.125961e-01 5.516912e-18) (0.000000e+00 0.000000e+00 0.000000e+00)) ((6.153187e+04 8.638589e+06 3.117258e-02) (-5.629806e+00 3.847648e+04 9.680706e+00) (0.000000e+00 0.000000e+00 0.000000e+00))
8.400000e+00	((1.741015e+05 -1.212445e+03 -1.291080e-13) (7.693200e+02 1.120158e-01 5.524662e-18) (0.000000e+00 0.000000e+00 0.000000e+00)) ((6.062225e+04 8.705077e+06 3.308353e-02) (-5.600792e+00 3.846600e+04 9.689576e+00) (0.000000e+00 0.000000e+00 0.000000e+00))
8.500000e+00	((1.754836e+05 -1.216879e+03 -1.290912e-13) (7.690954e+02 1.113722e-01 5.533276e-18) (0.000000e+00 0.000000e+00 0.000000e+00)) ((6.084396e+04 8.774179e+06 3.506881e-02) (-5.568609e+00 3.845477e+04 9.698775e+00) (0.000000e+00 0.000000e+00 0.000000e+00))
8.600000e+00	((1.769235e+05 -1.215661e+03 -1.290850e-13) (7.688556e+02 1.106886e-01 5.542826e-18) (0.000000e+00 0.000000e+00 0.000000e+00)) ((6.078307e+04 8.846176e+06 3.663274e-02) (-5.534430e+00 3.844278e+04 9.708851e+00) (0.000000e+00 0.000000e+00 0.000000e+00))
8.700000e+00	((1.783925e+05 -1.217614e+03 -1.290687e-13) (7.686006e+02 1.099778e-01 5.553454e-18) (0.000000e+00 0.000000e+00 0.000000e+00)) ((6.088070e+04 8.919623e+06 3.941907e-02) (-5.498891e+00 3.843003e+04 9.719721e+00) (0.000000e+00 0.000000e+00 0.000000e+00))
8.800000e+00	((1.798133e+05 -1.209567e+03 -1.290511e-13) (7.683304e+02 1.092634e-01 5.565332e-18) (0.000000e+00 0.000000e+00 0.000000e+00)) ((6.047835e+04 8.990667e+06 4.205441e-02) (-5.463168e+00 3.841652e+04 9.732075e+00) (0.000000e+00 0.000000e+00 0.000000e+00))
8.900000e+00	((1.813293e+05 -1.220248e+03 -1.290227e-13) (7.680447e+02 1.085345e-01 5.578620e-18) (0.000000e+00 0.000000e+00 0.000000e+00)) ((6.101241e+04 9.066463e+06 5.102771e-02) (-5.426723e+00 3.840223e+04 9.744988e+00) (0.000000e+00 0.000000e+00 0.000000e+00))
9.000000e+00	((1.828522e+05 -1.207447e+03 -1.289704e-13) (7.677435e+02 1.077645e-01 5.593446e-18) (0.000000e+00 0.000000e+00 0.000000e+00)) ((6.037235e+04 9.142611e+06 5.534554e-02) (-5.388223e+00 3.838717e+04 9.756345e+00) (0.000000e+00 0.000000e+00 0.000000e+00))
9.100000e+00	((1.844009e+05 -1.205520e+03 -1.289661e-13) (7.674269e+02 1.069950e-01 5.610078e-18) (0.000000e+00 0.000000e+00 0.000000e+00)) ((6.027601e+04 9.220045e+06 5.894044e-02) (-5.349750e+00 3.837134e+04 9.768579e+00) (0.000000e+00 0.000000e+00 0.000000e+00))
9.200000e+00	((1.859584e+05 -1.235149e+03 -1.289273e-13) (7.670948e+02 1.062211e-01 5.628470e-18) (0.000000e+00 0.000000e+00 0.000000e+00)) ((6.175744e+04 9.297922e+06 6.215300e-02) (-5.311055e+00 3.835474e+04 9.781680e+00) (0.000000e+00 0.000000e+00 0.000000e+00))
9.300000e+00	((1.875835e+05 -1.223286e+03 -1.289015e-13) (7.667469e+02 1.054305e-01 5.648762e-18) (0.000000e+00 0.000000e+00 0.000000e+00)) ((6.116428e+04 9.379174e+06 6.422363e-02) (-5.271523e+00 3.833735e+04 9.795653e+00) (0.000000e+00 0.000000e+00 0.000000e+00))
9.400000e+00	((1.892501e+05 -1.215996e+03 -1.288597e-13) (7.663831e+02 1.046060e-01 5.670937e-18) (0.000000e+00 0.000000e+00 0.000000e+00)) ((6.079980e+04 9.462504e+06 6.206769e-02) (-5.230301e+00 3.831916e+04 9.808258e+00) (0.000000e+00 0.000000e+00 0.000000e+00))
9.500000e+00	((1.908725e+05 -1.201705e+03 -1.287741e-13) (7.660042e+02 1.037827e-01 5.694961e-18) (0.000000e+00 0.000000e+00 0.000000e+00)) ((6.008526e+04 9.543623e+06 6.170668e-02) (-5.189134e+00 3.830021e+04 9.819295e+00) (0.000000e+00 0.000000e+00 0.000000e+00))
9.600000e+00	((1.930935e+05 -1.085629e+03 -1.288032e-13) (7.656092e+02 1.029588e-01 5.721104e-18) (0.000000e+00 0.000000e+00 0.000000e+00)) ((5.428145e+04 9.654673e+06 2.070975e-01) (-5.147939e+00 3.828046e+04 9.831421e+00) (0.000000e+00 0.000000e+00 0.000000e+00))
9.700000e+00	((1.932901e+05 -1.529811e+03 -1.287962e-13) (7.652048e+02 1.021434e-01 5.748972e-18) (0.000000e+00 0.000000e+00 0.000000e+00)) ((7.649054e+04 9.664507e+06 -2.114469e-01) (-5.107172e+00 3.826024e+04 9.848218e+00) (0.000000e+00 0.000000e+00 0.000000e+00))
9.800000e+00	((1.930812e+05 -1.237708e+03 -1.288082e-13) (7.647891e+02 1.013635e-01 5.778436e-18) (0.000000e+00 0.000000e+00 0.000000e+00)) ((6.188539e+04 9.654061e+06 6.614901e-02) (-5.068177e+00 3.823945e+04 9.863212e+00) (0.000000e+00 0.000000e+00 0.000000e+00))
9.900000e+00	((1.950049e+05 -1.239205e+03 -1.287598e-13) (7.643706e+02 1.004712e-01 5.809163e-18) (0.000000e+00 0.000000e+00 0.000000e+00)) ((6.196026e+04 9.750245e+06 7.874772e-02) (-5.023559e+00 3.821853e+04 9.871771e+00) (0.000000e+00 0.000000e+00 0.000000e+00))
1.000000e+01	((1.965671e+05 -1.215819e+03 -1.287486e-13) (7.639396e+02 9.955614e-02 5.841298e-18) (0.000000e+00 0.000000e+00 0.000000e+00)) ((6.079093e+04 9.828354e+06 1.067304e-01) (-4.977807e+00 3.819698e+04 9.878540e+00) (0.000000e+00 0.000000e+00 0.000000e+00))
1.010000e+01	((1.983363e+05 -1.242952e+03 -1.286452e-13) (7.634968e+02 9.865655e-02 5.874518e-18) (0.000000e+00 0.000000e+00 0.000000e+00)) ((6.214759e+04 9.916817e+06 8.440768e-02) (-4.932827e+00 3.817484e+04 9.888171e+00) (0.000000e+00 0.000000e+00 0.000000e+00))
1.020000e+01	((1.999679e+05 -1.223641e+03 -1.286013e-13) (7.630423e+02 9.777574e-02 5.908875e-18) (0.000000e+00 0.000000e+00 0.000000e+00)) ((6.118206e+04 9.998394e+06 9.230694e-02) (-4.888787e+00 3.815212e+04 9.900021e+00) (0.000000e+00 0.000000e+00 0.000000e+00))
1.030000e+01	((2.017220e+05 -1.200889e+03 -1.285629e-13) (7.625755e+02 9.691906e-02 5.943903e-18) (0.000000e+00 0.000000e+00 0.000000e+00)) ((6.004443e+04 1.008610e+07 1.034064e-01) (-4.845953e+00 3.812877e+04 9.915259e+00) (0.000000e+00 0.000000e+00 0.000000e+00))
1.040000e+01	((2.034269e+05 -1.235754e+03 -1.284982e-13) (7.620950e+02 9.608673e-02 5.979201e-18) (0.000000e+00 0.000000e+00 0.000000e+00)) ((6.178772e+04 1.017135e+07 1.118198e-01) (-4.804336e+00 3.810475e+04 9.935809e+00) (0.000000e+00 0.000000e+00 0.000000e+00))
1.050000e+01	((2.050561e+05 -9.653002e+02 -1.283871e-13) (7.616005e+02 9.524156e-02 6.014502e-18) (0.000000e+00 0.000000e+00 0.000000e+00)) ((4.826501e+04 1.025280e+07 3.470069e-01) (-4.762078e+00 3.808002e+04 9.957086e+00) (0.000000e+00 0.000000e+00 0.000000e+00))
1.060000e+01	((2.074464e+05 -1.226645e+03 -1.283587e-13) (7.610924e+02 9.419396e-02 6.049596e-18) (0.000000e+00 0.000000e+00 0.000000e+00)) ((6.133223e+04 1.037232e+07 1.542167e-01) (-4.709698e+00 3.805462e+04 9.960657e+00) (0.000000e+00 0.000000e+00 0.000000e+00))
1.070000e+01	((2.076342e+05 -1.243180e+03 -1.283867e-13) (7.605775e+02 9.334631e-02 6.084394e-18) (0.000000e+00 0.000000e+00 0.000000e+00)) ((6.215900e+04 1.038171e+07 1.291282e-01) (-4.667316e+00 3.802887e+04 9.965180e+00) (0.000000e+00 0.000000e+00 0.000000e+00))
1.080000e+01	((2.094608e+05 -1.258866e+03 -1.282477e-13) (7.600573e+02 9.231326e-02 6.118076e-18) (0.000000e+00 0.000000e+00 0.000000e+00)) ((6.294328e+04 1.047304e+07 1.277841e-01) (-4.615663e+00 3.800286e+04 9.968086e+00) (0.000000e+00 0.000000e+00 0.000000e+00))
1.090000e+01	((2.112941e+05 -1.244341e+03 -1.282243e-13) (7.595259e+02 9.134916e-02 6.151033e-18) (0.000000e+00 0.000000e+00 0.000000e+00)) ((6.221707e+04 1.056471e+07 1.301351e-01) (-4.567458e+00 3.797630e+04 9.977625e+00) (0.000000e+00 0.000000e+00 0.000000e+00))
1.100000e+01	((2.130245e+05 -1.230255e+03 -1.281593e-13) (7.589834e+02 9.040352e-02 6.182678e-18) (0.000000e+00 0.000000e+00 0.000000e+00)) ((6.151274e+04 1.065123e+07 1.456102e-01) (-4.520176e+00 3.794917e+04 9.988966e+00) (0.000000e+00 0.000000e+00 0.000000e+00))
1.110000e+01	((2.151891e+05 -1.290643e+03 -1.280505e-13) (7.584297e+02 8.950516e-02 6.212826e-18) (0.000000e+00 0.000000e+00 0.000000e+00)) ((6.453214e+04 1.075945e+07 8.220689e-02) (-4.475258e+00 3.792148e+04 1.000229e+01) (0.000000e+00 0.000000e+00 0.000000e+00))