/*--------------------------------*- C++ -*----------------------------------*\
| =========                 |                                                 |
| \\      /  F ield         | OpenFOAM: The Open Source CFD Toolbox           |
|  \\    /   O peration     | Version:  2.3.1                                 |
|   \\  /    A nd           | Web:      www.OpenFOAM.org                      |
|    \\/     M anipulation  |                                                 |
\*---------------------------------------------------------------------------*/
FoamFile
{
    version     2.0;
    format      ascii;
    class       volScalarField;
    location    "0";
    object      y;
}
// * * * * * * * * * * * * * * * * * * * * * * * * * * * * * * * * * * * * * //

dimensions      [0 1 0 0 0 0 0];

internalField   nonuniform List<scalar> 
19300
(
21.5654
93.8181
119.53
148.58
192.029
241.544
273.328
307.927
347.666
390.601
424.453
457.652
493.721
531.834
567.753
598.493
631.107
665.153
700.269
731.462
760.852
791.298
822.57
854.473
886.842
911.146
938.994
967.357
996.116
1025.17
1054.42
1075.53
1101.05
1126.82
1152.79
1178.88
1205.05
1231.24
1248.13
1271.24
1294.43
1317.67
1288.39
1256.84
1225.79
1195.24
1165.19
1135.62
1106.53
1077.9
1049.74
1022.03
994.77
967.948
941.559
915.596
890.051
864.918
840.19
815.861
791.925
768.374
745.203
722.406
699.977
677.909
656.197
634.836
613.818
593.14
572.796
552.779
533.085
513.709
494.645
475.889
457.436
439.28
421.417
403.842
386.55
369.538
352.8
336.332
320.13
304.189
288.506
273.076
257.895
242.959
228.264
213.807
199.583
185.59
171.823
158.279
144.954
131.847
118.952
106.268
21.4951
90.2758
122.974
149.23
189.496
236.059
276.72
308.341
345.075
385.109
427.207
458.615
491.866
527.218
564.072
601.97
630.72
662.166
694.735
728.144
762.162
790.624
819.499
849.048
879.114
909.56
940.272
965.169
991.754
1018.67
1045.84
1073.17
1100.61
1128.1
1148.4
1172.55
1196.82
1221.15
1245.5
1269.84
1294.13
1274.26
1243.4
1213.04
1183.16
1153.77
1124.85
1096.4
1068.4
1040.86
1013.76
987.101
960.869
935.061
909.669
884.687
860.107
835.924
812.13
788.721
765.689
743.028
720.733
698.798
677.216
655.983
635.092
614.537
594.315
574.418
554.843
535.583
516.634
497.991
479.648
461.601
443.846
426.377
409.19
392.28
375.643
359.275
343.171
327.326
311.738
296.402
281.313
266.468
251.863
237.494
223.357
209.45
195.768
182.307
169.065
156.039
143.224
130.619
118.221
106.028
21.4289
86.8662
126.821
150.697
188.006
231.734
278.373
310.471
344.429
381.722
421.175
461.981
492.787
525.563
559.888
595.323
631.527
662.919
693.112
724.184
755.915
788.121
820.65
848.415
876.325
904.652
933.287
962.133
991.11
1020.15
1043.13
1068.55
1094.1
1119.73
1145.4
1171.06
1196.67
1222.2
1240.56
1263.21
1259.96
1229.77
1200.08
1170.86
1142.12
1113.83
1086.01
1058.63
1031.69
1005.19
979.119
953.466
928.226
903.394
878.961
854.923
831.273
808.004
785.11
762.586
740.425
718.621
697.169
676.063
655.297
634.867
614.766
594.989
575.531
556.388
537.553
519.022
500.79
482.852
465.203
447.84
430.756
413.949
397.412
381.143
365.137
349.388
333.895
318.651
303.654
288.899
274.383
260.102
246.051
232.229
218.63
205.252
192.091
179.144
166.408
153.88
141.557
129.437
117.517
105.796
21.3671
83.6034
131.035
152.953
187.577
228.627
272.744
314.274
345.728
380.485
417.451
455.849
495.136
526.883
558.869
592.001
625.953
660.467
695.337
724.327
753.933
784.05
814.532
845.257
876.124
907.045
931.577
958.527
985.641
1012.85
1040.1
1067.33
1094.5
1121.57
1141.67
1165.66
1189.64
1213.57
1237.41
1245.77
1216.25
1187.2
1158.62
1130.5
1102.84
1075.62
1048.84
1022.49
996.568
971.063
945.97
921.281
896.99
873.091
849.578
826.443
803.682
781.288
759.255
737.578
716.25
695.266
674.621
654.309
634.325
614.663
595.318
576.285
557.559
539.136
521.01
503.176
485.63
468.367
451.383
434.673
418.233
402.059
386.145
370.489
355.085
339.931
325.021
310.352
295.921
281.723
267.755
254.013
240.493
227.193
214.109
201.238
188.576
176.12
163.868
151.817
139.964
128.307
116.845
105.575
21.3098
80.5036
133.234
155.96
188.211
226.781
268.516
311.775
348.942
381.409
416.084
452.235
489.338
527.015
561.016
592.043
623.915
656.386
689.259
722.375
755.607
784.434
813.03
841.9
870.944
900.08
929.237
958.356
987.387
1016.29
1036.89
1062.49
1088.06
1113.57
1138.97
1164.25
1189.38
1214.34
1232.06
1203.16
1174.74
1146.77
1119.25
1092.17
1065.53
1039.32
1013.54
988.169
963.208
938.649
914.487
890.714
867.325
844.313
821.672
799.397
777.481
755.918
734.703
713.83
693.294
673.09
653.211
633.653
614.411
595.479
576.852
558.527
540.496
522.757
505.304
488.133
471.239
454.618
438.265
422.176
406.347
390.774
375.452
360.378
345.547
330.956
316.601
302.479
288.585
274.916
261.468
248.238
235.223
222.419
209.824
197.433
185.245
173.255
161.463
149.864
138.456
127.239
116.209
105.366
21.2572
77.5843
128.401
159.672
189.893
226.222
265.747
306.886
348.77
384.468
417.086
451.188
486.276
521.986
558.048
594.265
625.43
656.043
687.084
718.402
749.872
781.394
812.886
844.283
870.726
898.227
925.776
953.316
980.797
1008.18
1035.42
1062.5
1089.38
1116.05
1135.89
1159.78
1183.54
1207.16
1190.9
1163.06
1135.66
1108.71
1082.19
1056.09
1030.42
1005.17
980.315
955.866
931.811
908.144
884.859
861.949
839.409
817.233
795.414
773.947
752.827
732.047
711.602
691.487
671.697
652.226
633.069
614.222
595.678
577.434
559.484
541.823
524.448
507.353
490.534
473.987
457.707
441.689
425.931
410.427
395.173
380.166
365.401
350.875
336.584
322.523
308.691
295.082
281.694
268.522
255.564
242.816
230.275
217.939
205.802
193.864
182.121
170.569
159.208
148.034
137.045
126.238
115.614
105.17
21.2095
74.8648
123.899
164.04
192.592
226.953
264.477
303.664
343.664
383.982
420.432
452.714
485.989
519.91
554.22
588.724
623.275
657.76
692.094
718.532
748.406
778.358
808.309
838.194
867.959
897.559
926.958
956.125
979.802
1005.8
1031.69
1057.44
1083.01
1108.4
1133.57
1158.53
1183.24
1179.9
1152.6
1125.73
1099.29
1073.28
1047.69
1022.52
997.745
973.374
949.396
925.804
902.594
879.757
857.289
835.183
813.434
792.035
770.982
750.269
729.889
709.839
690.112
670.703
651.607
632.819
614.335
596.148
578.256
560.652
543.332
526.291
509.526
493.031
476.803
460.836
445.128
429.673
414.467
399.508
384.79
370.309
356.063
342.047
328.258
314.692
301.345
288.215
275.297
262.588
250.086
237.786
225.687
213.784
202.075
190.557
179.227
168.082
157.121
146.341
135.739
125.314
115.065
104.99
21.1667
72.3662
119.763
166.395
196.263
228.958
264.721
302.156
340.446
379.104
417.828
456.424
488.472
520.813
553.559
586.523
619.564
652.57
685.457
718.158
750.623
782.809
808.359
836.892
865.327
893.62
921.735
949.643
977.318
1004.74
1031.89
1058.76
1085.33
1111.6
1131.12
1154.96
1170.66
1143.83
1117.43
1091.46
1065.91
1040.77
1016.03
991.698
967.755
944.198
921.02
898.217
875.782
853.708
831.991
810.623
789.601
768.917
748.567
728.546
708.847
689.467
670.398
651.638
633.18
615.02
597.153
579.575
562.28
545.264
528.523
512.052
495.846
479.903
464.217
448.784
433.6
418.662
403.964
389.504
375.278
361.282
347.512
333.964
320.636
307.523
294.623
281.931
269.445
257.161
245.076
233.188
221.493
209.988
198.67
187.537
176.585
165.813
155.218
144.798
134.55
124.473
114.566
104.826
21.129
70.1103
116.028
161.205
200.849
232.199
266.471
302.382
339.163
376.342
413.623
450.813
487.785
524.451
556.065
587.689
619.405
651.106
682.711
714.153
745.383
776.359
807.05
837.43
867.481
897.187
921.8
948.598
975.182
1001.53
1027.63
1053.46
1079.01
1104.28
1129.25
1153.92
1137.29
1111.29
1085.72
1060.56
1035.81
1011.45
987.487
963.911
940.714
917.892
895.438
873.346
851.611
830.226
809.186
788.486
768.119
748.081
728.366
708.969
689.885
671.109
652.636
634.461
616.579
598.985
581.676
564.645
547.89
531.405
515.186
499.229
483.529
468.083
452.886
437.934
423.224
408.752
394.513
380.504
366.721
353.161
339.821
326.696
313.783
301.079
288.58
276.284
264.187
252.286
240.578
229.06
217.729
206.582
195.616
184.829
174.218
163.781
153.515
143.418
133.487
123.722
114.12
104.68
21.0965
68.12
112.733
156.626
199.811
236.624
269.693
304.333
339.829
375.735
411.764
447.728
483.499
518.991
554.143
588.914
623.273
653.383
683.891
714.252
744.415
774.343
804.004
833.373
862.429
891.159
919.549
947.591
975.277
1002.6
1029.56
1056.16
1082.39
1108.24
1127.42
1133.55
1107.88
1082.62
1057.78
1033.33
1009.28
985.617
962.335
939.428
916.891
894.718
872.902
851.437
830.319
809.542
789.1
768.987
749.199
729.73
710.576
691.73
673.188
654.945
636.997
619.338
601.964
584.87
568.052
551.505
535.226
519.209
503.45
487.946
472.692
457.685
442.919
428.392
414.099
400.038
386.203
372.591
359.2
346.025
333.062
320.309
307.763
295.419
283.275
271.327
259.572
248.008
236.632
225.439
214.428
203.596
192.94
182.458
172.146
162.003
152.025
142.211
132.559
123.066
113.731
104.552
21.0692
66.4178
109.914
152.709
194.814
236.24
274.331
307.972
342.43
377.289
412.277
447.212
481.972
516.472
550.65
584.466
617.888
650.895
683.474
715.613
747.307
778.552
809.345
834.114
862.339
890.249
917.834
945.083
971.99
998.55
1024.76
1050.61
1076.11
1101.26
1126.05
1107.78
1082.76
1058.14
1033.91
1010.08
986.626
963.554
940.854
918.521
896.547
874.928
853.657
832.73
812.14
791.882
771.951
752.341
733.048
714.066
695.39
677.015
658.937
641.15
623.65
606.433
589.493
572.826
556.429
540.296
524.423
508.806
493.441
478.324
463.451
448.818
434.422
420.257
406.321
392.611
379.121
365.849
352.792
339.945
327.306
314.871
302.637
290.601
278.759
267.108
255.646
244.37
233.276
222.361
211.624
201.06
190.668
180.445
170.387
160.494
150.762
141.189
131.772
122.511
113.402
104.445
21.0474
65.0253
107.609
149.505
190.726
231.283
271.185
310.444
346.917
380.972
415.147
449.271
483.226
516.93
550.325
583.37
616.034
648.297
680.143
711.564
742.552
773.102
803.214
832.887
862.121
890.92
919.285
947.219
974.728
1001.81
1028.48
1054.74
1080.58
1106.03
1111.64
1086.73
1062.23
1038.13
1014.41
991.075
968.117
945.529
923.306
901.44
879.928
858.762
837.938
817.449
797.291
777.458
757.945
738.747
719.858
701.274
682.99
665
647.301
629.887
612.754
595.898
579.313
562.996
546.942
531.147
515.607
500.317
485.274
470.474
455.912
441.586
427.491
413.623
399.978
386.554
373.347
360.353
347.568
334.99
322.615
310.44
298.461
286.676
275.081
263.674
252.45
241.408
230.545
219.857
209.343
198.998
188.821
178.809
168.959
159.269
149.737
140.359
131.135
122.061
113.136
104.358
21.0309
63.9618
105.848
147.058
187.604
227.497
266.745
305.361
343.355
380.735
417.513
453.698
489.299
520.353
553.168
585.639
617.737
649.441
680.738
711.617
742.071
772.097
801.693
830.858
859.594
887.901
915.784
943.244
970.286
996.913
1023.13
1048.94
1074.35
1099.37
1095.17
1070.67
1046.57
1022.86
999.532
976.58
953.997
931.779
909.919
888.412
867.251
846.432
825.948
805.795
785.967
766.458
747.265
728.38
709.8
691.52
673.535
655.84
638.43
621.301
604.448
587.867
571.553
555.503
539.711
524.174
508.888
493.848
479.051
464.492
450.169
436.076
422.211
408.569
395.147
381.942
368.95
356.168
343.592
331.218
319.045
307.068
295.284
283.69
272.284
261.061
250.02
239.157
228.469
217.955
207.61
197.432
187.418
177.567
167.875
158.34
148.959
139.731
130.652
121.721
112.935
104.292
21.0199
63.2432
104.658
145.405
185.495
224.938
263.746
301.927
339.493
376.453
412.817
448.595
483.796
518.429
552.504
586.029
619.014
651.466
683.396
714.81
745.718
776.128
806.047
835.483
864.445
892.94
920.976
948.559
975.698
1002.4
1028.67
1049.2
1074.32
1099.04
1084.05
1059.83
1036
1012.56
989.489
966.794
944.466
922.497
900.883
879.617
858.695
838.109
817.856
797.929
778.324
759.034
740.056
721.384
703.013
684.938
667.155
649.658
632.444
615.507
598.844
582.449
566.318
550.448
534.833
519.471
504.356
489.485
474.854
460.458
446.295
432.36
418.65
405.162
391.89
378.833
365.986
353.347
340.911
328.676
316.639
304.795
293.143
281.679
270.399
259.302
248.383
237.641
227.072
216.674
206.443
196.378
186.475
176.732
167.146
157.715
148.437
139.308
130.327
121.492
112.799
104.248
21.0144
62.881
104.058
144.571
184.431
223.649
262.233
300.196
337.546
374.295
410.45
446.023
481.021
515.456
549.335
582.668
615.463
647.73
679.476
710.711
741.441
771.676
801.424
830.692
859.488
887.819
915.694
943.119
970.102
996.65
1022.77
1048.47
1073.75
1098.63
1078.45
1054.36
1030.67
1007.36
984.428
961.864
939.663
917.821
896.33
875.186
854.384
833.916
813.779
793.966
774.473
755.294
736.425
717.86
699.594
681.623
663.941
646.545
629.429
612.589
596.021
579.72
563.682
547.902
532.377
517.102
502.074
487.288
472.74
458.427
444.345
430.49
416.858
403.446
390.251
377.268
364.494
351.927
339.562
327.397
315.428
303.652
292.066
280.666
269.451
258.416
247.56
236.878
226.369
216.029
205.857
195.848
186
176.312
166.78
157.401
148.174
139.096
130.165
121.377
112.731
104.225
21.0144
62.881
104.058
144.571
184.431
223.649
262.233
300.196
337.546
374.295
410.45
446.023
481.021
515.456
549.335
582.668
615.463
647.73
679.476
710.711
741.441
771.676
801.424
830.692
859.488
887.819
915.694
943.119
970.102
996.65
1022.77
1048.47
1073.75
1098.63
1078.45
1054.36
1030.67
1007.36
984.428
961.864
939.663
917.821
896.33
875.186
854.384
833.916
813.779
793.966
774.473
755.294
736.425
717.86
699.594
681.623
663.941
646.545
629.429
612.589
596.021
579.72
563.682
547.902
532.377
517.102
502.074
487.288
472.74
458.427
444.345
430.49
416.858
403.446
390.251
377.268
364.494
351.927
339.562
327.397
315.428
303.652
292.066
280.666
269.451
258.416
247.56
236.878
226.369
216.029
205.857
195.848
186
176.312
166.78
157.401
148.174
139.096
130.165
121.377
112.731
104.225
21.0199
63.2432
104.658
145.405
185.495
224.938
263.746
301.927
339.493
376.453
412.817
448.595
483.796
518.429
552.504
586.029
619.014
651.466
683.396
714.81
745.718
776.128
806.047
835.483
864.445
892.94
920.976
948.559
975.698
1002.4
1028.67
1049.2
1074.32
1099.04
1084.05
1059.83
1036
1012.56
989.489
966.794
944.466
922.497
900.883
879.617
858.695
838.109
817.856
797.929
778.324
759.034
740.056
721.384
703.013
684.938
667.155
649.658
632.444
615.507
598.844
582.449
566.318
550.448
534.833
519.471
504.356
489.485
474.854
460.458
446.295
432.36
418.65
405.162
391.89
378.833
365.986
353.347
340.911
328.676
316.639
304.795
293.143
281.679
270.399
259.302
248.383
237.641
227.072
216.674
206.443
196.378
186.475
176.732
167.146
157.715
148.437
139.308
130.327
121.492
112.799
104.248
21.0309
63.9618
105.848
147.058
187.604
227.497
266.745
305.361
343.355
380.735
417.513
453.698
489.299
520.353
553.168
585.639
617.737
649.441
680.738
711.617
742.071
772.097
801.693
830.858
859.594
887.901
915.784
943.244
970.286
996.913
1023.13
1048.94
1074.35
1099.37
1095.17
1070.67
1046.57
1022.86
999.532
976.58
953.997
931.779
909.919
888.412
867.251
846.432
825.948
805.795
785.967
766.458
747.265
728.38
709.8
691.52
673.535
655.84
638.43
621.301
604.448
587.867
571.553
555.503
539.711
524.174
508.888
493.848
479.051
464.492
450.169
436.076
422.211
408.569
395.147
381.942
368.95
356.168
343.592
331.218
319.045
307.068
295.284
283.69
272.284
261.061
250.02
239.157
228.469
217.955
207.61
197.432
187.418
177.567
167.875
158.34
148.959
139.731
130.652
121.721
112.935
104.292
21.0474
65.0253
107.609
149.505
190.726
231.283
271.185
310.444
346.917
380.972
415.147
449.271
483.226
516.93
550.325
583.37
616.034
648.297
680.143
711.564
742.552
773.102
803.214
832.887
862.121
890.92
919.285
947.219
974.728
1001.81
1028.48
1054.74
1080.58
1106.03
1111.64
1086.73
1062.23
1038.13
1014.41
991.075
968.117
945.529
923.306
901.44
879.928
858.762
837.938
817.449
797.291
777.458
757.945
738.747
719.858
701.274
682.99
665
647.301
629.887
612.754
595.898
579.313
562.996
546.942
531.147
515.607
500.317
485.274
470.474
455.912
441.586
427.491
413.623
399.978
386.554
373.347
360.353
347.568
334.99
322.615
310.44
298.461
286.676
275.081
263.674
252.45
241.408
230.545
219.857
209.343
198.998
188.821
178.809
168.959
159.269
149.737
140.359
131.135
122.061
113.136
104.358
21.0692
66.4178
109.914
152.709
194.814
236.24
274.331
307.972
342.43
377.289
412.277
447.212
481.972
516.472
550.65
584.466
617.888
650.895
683.474
715.613
747.307
778.552
809.345
834.114
862.339
890.249
917.834
945.083
971.99
998.55
1024.76
1050.61
1076.11
1101.26
1126.05
1107.78
1082.76
1058.14
1033.91
1010.08
986.626
963.554
940.854
918.521
896.547
874.928
853.657
832.73
812.14
791.882
771.951
752.341
733.048
714.066
695.39
677.015
658.937
641.15
623.65
606.433
589.493
572.826
556.429
540.296
524.423
508.806
493.441
478.324
463.451
448.818
434.422
420.257
406.321
392.611
379.121
365.849
352.792
339.945
327.306
314.871
302.637
290.601
278.759
267.108
255.646
244.37
233.276
222.361
211.624
201.06
190.668
180.445
170.387
160.494
150.762
141.189
131.772
122.511
113.402
104.445
21.0965
68.12
112.733
156.626
199.811
236.624
269.693
304.333
339.829
375.735
411.764
447.728
483.499
518.991
554.143
588.914
623.273
653.383
683.891
714.252
744.415
774.343
804.004
833.373
862.429
891.159
919.549
947.591
975.277
1002.6
1029.56
1056.16
1082.39
1108.24
1127.42
1133.55
1107.88
1082.62
1057.78
1033.33
1009.28
985.617
962.335
939.428
916.891
894.718
872.902
851.437
830.319
809.542
789.1
768.987
749.199
729.73
710.576
691.73
673.188
654.945
636.997
619.338
601.964
584.87
568.052
551.505
535.226
519.209
503.45
487.946
472.692
457.685
442.919
428.392
414.099
400.038
386.203
372.591
359.2
346.025
333.062
320.309
307.763
295.419
283.275
271.327
259.572
248.008
236.632
225.439
214.428
203.596
192.94
182.458
172.146
162.003
152.025
142.211
132.559
123.066
113.731
104.552
21.129
70.1103
116.028
161.205
200.849
232.199
266.471
302.382
339.163
376.342
413.623
450.813
487.785
524.451
556.065
587.689
619.405
651.106
682.711
714.153
745.383
776.359
807.05
837.43
867.481
897.187
921.8
948.598
975.182
1001.53
1027.63
1053.46
1079.01
1104.28
1129.25
1153.92
1137.29
1111.29
1085.72
1060.56
1035.81
1011.45
987.487
963.911
940.714
917.892
895.438
873.346
851.611
830.226
809.186
788.486
768.119
748.081
728.366
708.969
689.885
671.109
652.636
634.461
616.579
598.985
581.676
564.645
547.89
531.405
515.186
499.229
483.529
468.083
452.886
437.934
423.224
408.752
394.513
380.504
366.721
353.161
339.821
326.696
313.783
301.079
288.58
276.284
264.187
252.286
240.578
229.06
217.729
206.582
195.616
184.829
174.218
163.781
153.515
143.418
133.487
123.722
114.12
104.68
21.1667
72.3662
119.763
166.395
196.263
228.958
264.721
302.156
340.446
379.104
417.828
456.424
488.472
520.813
553.559
586.523
619.564
652.57
685.457
718.158
750.623
782.809
808.359
836.892
865.327
893.62
921.735
949.643
977.318
1004.74
1031.89
1058.76
1085.33
1111.6
1131.12
1154.96
1170.66
1143.83
1117.43
1091.46
1065.91
1040.77
1016.03
991.698
967.755
944.198
921.02
898.217
875.782
853.708
831.991
810.623
789.601
768.917
748.567
728.546
708.847
689.467
670.398
651.638
633.18
615.02
597.153
579.575
562.28
545.264
528.523
512.052
495.846
479.903
464.217
448.784
433.6
418.662
403.964
389.504
375.278
361.282
347.512
333.964
320.636
307.523
294.623
281.931
269.445
257.161
245.076
233.188
221.493
209.988
198.67
187.537
176.585
165.813
155.218
144.798
134.55
124.473
114.566
104.826
21.2095
74.8648
123.899
164.04
192.592
226.953
264.477
303.664
343.664
383.982
420.432
452.714
485.989
519.91
554.22
588.724
623.275
657.76
692.094
718.532
748.406
778.358
808.309
838.194
867.959
897.559
926.958
956.125
979.802
1005.8
1031.69
1057.44
1083.01
1108.4
1133.57
1158.53
1183.24
1179.9
1152.6
1125.73
1099.29
1073.28
1047.69
1022.52
997.745
973.374
949.396
925.804
902.594
879.757
857.289
835.183
813.434
792.035
770.982
750.269
729.889
709.839
690.112
670.703
651.607
632.819
614.335
596.148
578.256
560.652
543.332
526.291
509.526
493.031
476.803
460.836
445.128
429.673
414.467
399.508
384.79
370.309
356.063
342.047
328.258
314.692
301.345
288.215
275.297
262.588
250.086
237.786
225.687
213.784
202.075
190.557
179.227
168.082
157.121
146.341
135.739
125.314
115.065
104.99
21.2572
77.5843
128.401
159.672
189.893
226.222
265.747
306.886
348.77
384.468
417.086
451.188
486.276
521.986
558.048
594.265
625.43
656.043
687.084
718.402
749.872
781.394
812.886
844.283
870.726
898.227
925.776
953.316
980.797
1008.18
1035.42
1062.5
1089.38
1116.05
1135.89
1159.78
1183.54
1207.16
1190.9
1163.06
1135.66
1108.71
1082.19
1056.09
1030.42
1005.17
980.315
955.866
931.811
908.144
884.859
861.949
839.409
817.233
795.414
773.947
752.827
732.047
711.602
691.487
671.697
652.226
633.069
614.222
595.678
577.434
559.484
541.823
524.448
507.353
490.534
473.987
457.707
441.689
425.931
410.427
395.173
380.166
365.401
350.875
336.584
322.523
308.691
295.082
281.694
268.522
255.564
242.816
230.275
217.939
205.802
193.864
182.121
170.569
159.208
148.034
137.045
126.238
115.614
105.17
21.3098
80.5036
133.234
155.96
188.211
226.781
268.516
311.775
348.942
381.409
416.084
452.235
489.338
527.015
561.016
592.043
623.915
656.386
689.259
722.375
755.607
784.434
813.03
841.9
870.944
900.08
929.237
958.356
987.387
1016.29
1036.89
1062.49
1088.06
1113.57
1138.97
1164.25
1189.38
1214.34
1232.06
1203.16
1174.74
1146.77
1119.25
1092.17
1065.53
1039.32
1013.54
988.169
963.208
938.649
914.487
890.714
867.325
844.313
821.672
799.397
777.481
755.918
734.703
713.83
693.294
673.09
653.211
633.653
614.411
595.479
576.852
558.527
540.496
522.757
505.304
488.133
471.239
454.618
438.265
422.176
406.347
390.774
375.452
360.378
345.547
330.956
316.601
302.479
288.585
274.916
261.468
248.238
235.223
222.419
209.824
197.433
185.245
173.255
161.463
149.864
138.456
127.239
116.209
105.366
21.3671
83.6034
131.035
152.953
187.577
228.627
272.744
314.274
345.728
380.485
417.451
455.849
495.136
526.883
558.869
592.001
625.953
660.467
695.337
724.327
753.933
784.05
814.532
845.257
876.124
907.045
931.577
958.527
985.641
1012.85
1040.1
1067.33
1094.5
1121.57
1141.67
1165.66
1189.64
1213.57
1237.41
1245.77
1216.25
1187.2
1158.62
1130.5
1102.84
1075.62
1048.84
1022.49
996.568
971.063
945.97
921.281
896.99
873.091
849.578
826.443
803.682
781.288
759.255
737.578
716.25
695.266
674.621
654.309
634.325
614.663
595.318
576.285
557.559
539.136
521.01
503.176
485.63
468.367
451.383
434.673
418.233
402.059
386.145
370.489
355.085
339.931
325.021
310.352
295.921
281.723
267.755
254.013
240.493
227.193
214.109
201.238
188.576
176.12
163.868
151.817
139.964
128.307
116.845
105.575
21.4289
86.8662
126.821
150.697
188.006
231.734
278.373
310.471
344.429
381.722
421.175
461.981
492.787
525.563
559.888
595.323
631.527
662.919
693.112
724.184
755.915
788.121
820.65
848.415
876.325
904.652
933.287
962.133
991.11
1020.15
1043.13
1068.55
1094.1
1119.73
1145.4
1171.06
1196.67
1222.2
1240.56
1263.21
1259.96
1229.77
1200.08
1170.86
1142.12
1113.83
1086.01
1058.63
1031.69
1005.19
979.119
953.466
928.226
903.394
878.961
854.923
831.273
808.004
785.11
762.586
740.425
718.621
697.169
676.063
655.297
634.867
614.766
594.989
575.531
556.388
537.553
519.022
500.79
482.852
465.203
447.84
430.756
413.949
397.412
381.143
365.137
349.388
333.895
318.651
303.654
288.899
274.383
260.102
246.051
232.229
218.63
205.252
192.091
179.144
166.408
153.88
141.557
129.437
117.517
105.796
21.4951
90.2758
122.974
149.23
189.496
236.059
276.72
308.341
345.075
385.109
427.207
458.615
491.866
527.218
564.072
601.97
630.72
662.166
694.735
728.144
762.162
790.624
819.499
849.048
879.114
909.56
940.272
965.169
991.754
1018.67
1045.84
1073.17
1100.61
1128.1
1148.4
1172.55
1196.82
1221.15
1245.5
1269.84
1294.13
1274.26
1243.4
1213.04
1183.16
1153.77
1124.85
1096.4
1068.4
1040.86
1013.76
987.101
960.869
935.061
909.669
884.687
860.107
835.924
812.13
788.721
765.689
743.028
720.733
698.798
677.216
655.983
635.092
614.537
594.315
574.418
554.843
535.583
516.634
497.991
479.648
461.601
443.846
426.377
409.19
392.28
375.643
359.275
343.171
327.326
311.738
296.402
281.313
266.468
251.863
237.494
223.357
209.45
195.768
182.307
169.065
156.039
143.224
130.619
118.221
106.028
21.5654
93.8181
119.53
148.58
192.029
241.544
273.328
307.927
347.666
390.601
424.453
457.652
493.721
531.834
567.753
598.493
631.107
665.153
700.269
731.462
760.852
791.298
822.57
854.473
886.842
911.146
938.994
967.357
996.116
1025.17
1054.42
1075.53
1101.05
1126.82
1152.79
1178.88
1205.05
1231.24
1248.13
1271.24
1294.43
1317.67
1288.39
1256.84
1225.79
1195.24
1165.19
1135.62
1106.53
1077.9
1049.74
1022.03
994.77
967.948
941.559
915.596
890.051
864.918
840.19
815.861
791.925
768.374
745.203
722.406
699.977
677.909
656.197
634.836
613.818
593.14
572.796
552.779
533.085
513.709
494.645
475.889
457.436
439.28
421.417
403.842
386.55
369.538
352.8
336.332
320.13
304.189
288.506
273.076
257.895
242.959
228.264
213.807
199.583
185.59
171.823
158.279
144.954
131.847
118.952
106.268
23.5669
94.1028
126.914
162.308
208.791
259.835
297.504
336.51
379.307
424.4
462.952
500.108
539.305
579.906
621.438
653.871
689.683
726.434
763.848
801.704
831.419
864.728
898.52
932.647
966.986
995.636
1026.17
1056.96
1087.92
1118.96
1150.03
1181.06
1203.25
1231.22
1259.21
1287.16
1315.06
1342.85
1370.51
1389.17
1356.84
1324.14
1291.98
1260.33
1229.19
1198.55
1168.4
1138.75
1109.57
1080.86
1052.61
1024.82
997.483
970.582
944.114
918.074
892.453
867.246
842.445
818.044
794.037
770.416
747.177
724.312
701.816
679.683
657.907
636.482
615.402
594.663
574.258
554.181
534.429
514.995
495.875
477.063
458.554
440.344
422.427
404.8
387.457
370.393
353.605
337.087
320.836
304.847
289.116
273.639
258.411
243.429
228.689
214.187
199.918
185.881
172.069
158.481
145.113
131.961
119.022
106.292
23.4965
91.1138
129.615
162.745
206.749
255.453
300.021
336.695
377.157
419.981
464.228
500.651
537.658
576.111
615.55
655.628
689.109
723.84
759.272
795.191
831.422
867.824
895.792
928.089
960.634
993.326
1026.08
1058.82
1084.12
1113.51
1142.94
1172.38
1201.76
1231.05
1260.21
1281.77
1308.18
1334.52
1360.76
1349.12
1316.94
1285.29
1254.14
1223.49
1193.34
1163.68
1134.5
1105.78
1077.53
1049.73
1022.38
995.477
969.004
942.958
917.331
892.118
867.312
842.905
818.892
795.267
772.022
749.152
726.651
704.513
682.732
661.302
640.217
619.473
599.063
578.982
559.225
539.786
520.661
501.845
483.332
465.117
447.196
429.564
412.217
395.149
378.356
361.835
345.579
329.586
313.851
298.369
283.137
268.151
253.406
238.899
224.627
210.584
196.768
183.174
169.8
156.642
143.696
130.959
118.427
106.098
23.4304
88.2554
132.664
163.82
205.521
252
300.57
338.215
376.516
417.209
459.388
502.437
538.166
574.617
612.09
650.248
688.83
727.637
757.734
791.837
826.289
860.95
895.706
930.463
958.121
989.166
1020.3
1051.46
1082.57
1113.59
1144.48
1168.37
1196.28
1224.13
1251.88
1279.49
1306.94
1334.21
1341.6
1309.92
1278.76
1248.09
1217.93
1188.24
1159.04
1130.31
1102.04
1074.22
1046.86
1019.93
993.445
967.382
941.74
916.511
891.689
867.267
843.24
819.599
796.34
773.456
750.941
728.789
706.994
685.55
664.453
643.695
623.273
603.179
583.41
563.959
544.822
525.994
507.469
489.243
471.311
453.668
436.31
419.231
402.428
385.896
369.63
353.627
337.882
322.39
307.149
292.153
277.399
262.883
248.601
234.549
220.724
207.122
193.739
180.572
167.617
154.871
142.331
129.992
117.853
105.91
23.3686
85.5389
136.035
165.516
205.117
249.509
296.088
341.045
377.384
416.108
456.352
497.52
539.197
575.431
611.088
647.457
684.287
721.383
758.59
791.667
824.469
857.507
890.671
923.869
957.025
990.077
1022.97
1048.31
1077.97
1107.57
1137.07
1166.41
1195.58
1224.54
1253.27
1274.88
1301.06
1327.08
1303.36
1272.65
1242.45
1212.73
1183.49
1154.72
1126.42
1098.57
1071.17
1044.21
1017.69
991.596
965.922
940.662
915.81
891.358
867.3
843.631
820.343
797.431
774.888
752.709
730.887
709.417
688.294
667.511
647.063
626.945
607.151
587.677
568.516
549.665
531.117
512.869
494.915
477.25
459.87
442.771
425.947
409.395
393.109
377.086
361.322
345.811
330.551
315.537
300.765
286.231
271.932
257.863
244.021
230.402
217.003
203.82
190.85
178.089
165.533
153.18
141.027
129.069
117.305
105.73
23.3114
82.9768
137.323
167.812
205.538
248.004
292.719
338.43
379.745
416.683
455.148
494.57
534.544
574.784
615.083
647.275
682.491
718.001
753.654
789.331
824.938
860.398
889.22
920.978
952.719
984.381
1015.91
1047.27
1078.42
1109.33
1134.22
1162.3
1190.22
1217.97
1245.5
1272.81
1299.88
1297.54
1267.27
1237.49
1208.19
1179.36
1151
1123.09
1095.63
1068.62
1042.04
1015.89
990.167
964.855
939.95
915.448
891.34
867.621
844.285
821.325
798.735
776.51
754.643
733.128
711.961
691.134
670.644
650.484
630.649
611.134
591.934
573.043
554.457
536.171
518.18
500.478
483.063
465.928
449.069
432.482
416.163
400.107
384.31
368.767
353.476
338.43
323.628
309.064
294.735
280.638
266.767
253.121
239.694
226.484
213.487
200.7
188.119
175.741
163.563
151.582
139.794
128.196
116.785
105.56
23.2588
80.5821
133.359
170.681
206.775
247.497
290.494
334.544
378.985
418.918
455.782
493.612
532.022
570.731
609.537
648.288
686.874
717.518
751.75
786.031
820.268
854.386
888.325
922.036
955.48
982.655
1012.94
1043.07
1073.02
1102.74
1132.23
1161.45
1190.38
1219.03
1247.36
1268.98
1294.99
1262.93
1233.54
1204.61
1176.16
1148.16
1120.62
1093.52
1066.86
1040.62
1014.81
989.421
964.437
939.855
915.67
891.875
868.464
845.43
822.768
800.471
778.534
756.951
735.715
714.822
694.266
674.041
654.143
634.565
615.304
596.352
577.707
559.362
541.313
523.555
506.083
488.893
471.981
455.341
438.969
422.862
407.014
391.422
376.082
360.988
346.139
331.528
317.154
303.011
289.096
275.406
261.937
248.685
235.647
222.819
210.198
197.781
185.565
173.545
161.72
150.086
138.64
127.378
116.3
105.4
23.2111
78.3687
129.695
174.093
208.812
247.992
289.436
331.967
374.933
417.958
458.238
494.651
531.653
568.975
606.419
643.837
681.12
718.183
754.964
785.913
818.911
851.812
884.554
917.091
949.383
981.399
1013.11
1044.5
1075.55
1100.61
1129.04
1157.23
1185.15
1212.79
1240.14
1267.2
1260
1230.94
1202.35
1174.23
1146.56
1119.33
1092.54
1066.19
1040.26
1014.75
989.647
964.952
940.654
916.749
893.229
870.088
847.32
824.92
802.881
781.197
759.863
738.873
718.221
697.902
677.912
658.243
638.892
619.853
601.12
582.69
564.557
546.717
529.164
511.894
494.903
478.186
461.739
445.556
429.635
413.971
398.559
383.396
368.477
353.799
339.358
325.15
311.17
297.417
283.885
270.572
257.473
244.586
231.907
219.432
207.159
195.084
183.204
171.516