/*--------------------------------*- C++ -*----------------------------------*\
| =========                 |                                                 |
| \\      /  F ield         | OpenFOAM: The Open Source CFD Toolbox           |
|  \\    /   O peration     | Version:  2.3.1                                 |
|   \\  /    A nd           | Web:      www.OpenFOAM.org                      |
|    \\/     M anipulation  |                                                 |
\*---------------------------------------------------------------------------*/
FoamFile
{
    version     2.0;
    format      ascii;
    class       volScalarField;
    location    "0";
    object      yPlus;
}
// * * * * * * * * * * * * * * * * * * * * * * * * * * * * * * * * * * * * * //

dimensions      [0 0 0 0 0 0 0];

internalField   uniform 0;

boundaryField
{
    inlet
    {
        type            calculated;
        value           nonuniform List<scalar> 
30
(
2.64122e+07
2.6326e+07
2.6245e+07
2.61692e+07
2.60991e+07
2.60347e+07
2.59762e+07
2.59238e+07
2.58776e+07
2.58378e+07
2.58045e+07
2.57777e+07
2.57575e+07
2.5744e+07
2.57373e+07
2.57373e+07
2.5744e+07
2.57575e+07
2.57777e+07
2.58045e+07
2.58378e+07
2.58776e+07
2.59238e+07
2.59762e+07
2.60347e+07
2.60991e+07
2.61692e+07
2.6245e+07
2.6326e+07
2.64122e+07
)
;
    }
    outlet
    {
        type            calculated;
        value           uniform 2.08207e+07;
    }
    top
    {
        type            calculated;
        value           nonuniform List<scalar> 
80
(
2.88634e+07
2.87773e+07
2.86963e+07
2.86206e+07
2.85505e+07
2.84861e+07
2.84276e+07
2.83752e+07
2.83291e+07
2.82893e+07
2.8256e+07
2.82292e+07
2.8209e+07
2.81956e+07
2.81888e+07
2.81888e+07
2.81956e+07
2.8209e+07
2.82292e+07
2.8256e+07
2.82893e+07
2.83291e+07
2.83752e+07
2.84276e+07
2.84861e+07
2.85505e+07
2.86206e+07
2.86963e+07
2.87773e+07
2.88634e+07
6.12372e+07
6.12372e+07
6.12372e+07
6.12372e+07
6.12372e+07
6.12372e+07
6.12372e+07
6.12372e+07
6.12372e+07
6.12372e+07
6.12372e+07
6.12372e+07
6.12372e+07
6.12372e+07
6.12372e+07
6.12372e+07
6.12372e+07
6.12372e+07
6.12372e+07
6.12372e+07
6.12372e+07
6.12372e+07
6.12372e+07
6.12372e+07
6.12372e+07
6.12372e+07
6.12372e+07
6.12372e+07
6.12372e+07
6.12372e+07
6.12372e+07
6.12372e+07
6.12372e+07
6.12372e+07
6.12372e+07
6.12372e+07
6.12372e+07
6.12372e+07
6.12372e+07
6.12372e+07
6.12372e+07
6.12372e+07
6.12372e+07
6.12372e+07
6.12372e+07
6.12372e+07
6.12372e+07
6.12372e+07
6.12372e+07
6.12372e+07
)
;
    }
    bottom
    {
        type            calculated;
        value           nonuniform List<scalar> 
80
(
2.88634e+07
2.87773e+07
2.86963e+07
2.86206e+07
2.85505e+07
2.84861e+07
2.84276e+07
2.83752e+07
2.83291e+07
2.82893e+07
2.8256e+07
2.82292e+07
2.8209e+07
2.81956e+07
2.81888e+07
2.81888e+07
2.81956e+07
2.8209e+07
2.82292e+07
2.8256e+07
2.82893e+07
2.83291e+07
2.83752e+07
2.84276e+07
2.84861e+07
2.85505e+07
2.86206e+07
2.86963e+07
2.87773e+07
2.88634e+07
6.12372e+07
6.12372e+07
6.12372e+07
6.12372e+07
6.12372e+07
6.12372e+07
6.12372e+07
6.12372e+07
6.12372e+07
6.12372e+07
6.12372e+07
6.12372e+07
6.12372e+07
6.12372e+07
6.12372e+07
6.12372e+07
6.12372e+07
6.12372e+07
6.12372e+07
6.12372e+07
6.12372e+07
6.12372e+07
6.12372e+07
6.12372e+07
6.12372e+07
6.12372e+07
6.12372e+07
6.12372e+07
6.12372e+07
6.12372e+07
6.12372e+07
6.12372e+07
6.12372e+07
6.12372e+07
6.12372e+07
6.12372e+07
6.12372e+07
6.12372e+07
6.12372e+07
6.12372e+07
6.12372e+07
6.12372e+07
6.12372e+07
6.12372e+07
6.12372e+07
6.12372e+07
6.12372e+07
6.12372e+07
6.12372e+07
6.12372e+07
)
;
    }
    cylinder
    {
        type            calculated;
        value           nonuniform List<scalar> 
140
(
3.08485e+06
3.08496e+06
3.08506e+06
3.08515e+06
3.08524e+06
3.08532e+06
3.08539e+06
3.08546e+06
3.08552e+06
3.08557e+06
3.08561e+06
3.08564e+06
3.08567e+06
3.08569e+06
3.08569e+06
3.08569e+06
3.08569e+06
3.08567e+06
3.08564e+06
3.08561e+06
3.08557e+06
3.08552e+06
3.08546e+06
3.08539e+06
3.08532e+06
3.08524e+06
3.08515e+06
3.08506e+06
3.08496e+06
3.08485e+06
3.0855e+06
3.08557e+06
3.08563e+06
3.0857e+06
3.08575e+06
3.08581e+06
3.08587e+06
3.08592e+06
3.08597e+06
3.08601e+06
3.08606e+06
3.0861e+06
3.08614e+06
3.08617e+06
3.08621e+06
3.08624e+06
3.08626e+06
3.08629e+06
3.08631e+06
3.08633e+06
3.08634e+06
3.08635e+06
3.08636e+06
3.08637e+06
3.08637e+06
3.08637e+06
3.08637e+06
3.08636e+06
3.08635e+06
3.08634e+06
3.08633e+06
3.08631e+06
3.08629e+06
3.08626e+06
3.08624e+06
3.08621e+06
3.08617e+06
3.08614e+06
3.0861e+06
3.08606e+06
3.08601e+06
3.08597e+06
3.08592e+06
3.08587e+06
3.08581e+06
3.08575e+06
3.0857e+06
3.08563e+06
3.08557e+06
3.0855e+06
3.08485e+06
3.08496e+06
3.08506e+06
3.08515e+06
3.08524e+06
3.08532e+06
3.08539e+06
3.08546e+06
3.08552e+06
3.08557e+06
3.08561e+06
3.08564e+06
3.08567e+06
3.08569e+06
3.08569e+06
3.08569e+06
3.08569e+06
3.08567e+06
3.08564e+06
3.08561e+06
3.08557e+06
3.08552e+06
3.08546e+06
3.08539e+06
3.08532e+06
3.08524e+06
3.08515e+06
3.08506e+06
3.08496e+06
3.08485e+06
3.08485e+06
3.08496e+06
3.08506e+06
3.08515e+06
3.08524e+06
3.08532e+06
3.08539e+06
3.08546e+06
3.08552e+06
3.08557e+06
3.08561e+06
3.08564e+06
3.08567e+06
3.08569e+06
3.08569e+06
3.08569e+06
3.08569e+06
3.08567e+06
3.08564e+06
3.08561e+06
3.08557e+06
3.08552e+06
3.08546e+06
3.08539e+06
3.08532e+06
3.08524e+06
3.08515e+06
3.08506e+06
3.08496e+06
3.08485e+06
)
;
    }
    sides
    {
        type            empty;
    }
}


// ************************************************************************* //
