/*--------------------------------*- C++ -*----------------------------------*\
| =========                 |                                                 |
| \\      /  F ield         | OpenFOAM: The Open Source CFD Toolbox           |
|  \\    /   O peration     | Version:  2.3.1                                 |
|   \\  /    A nd           | Web:      www.OpenFOAM.org                      |
|    \\/     M anipulation  |                                                 |
\*---------------------------------------------------------------------------*/
FoamFile
{
    version     2.0;
    format      ascii;
    class       volVectorField;
    location    "1000";
    object      ddt0(U);
}
// * * * * * * * * * * * * * * * * * * * * * * * * * * * * * * * * * * * * * //

dimensions      [0 1 -2 0 0 0 0];

internalField   nonuniform List<vector> 
4825
(
(7.35013e-06 -1.16226e-05 0)
(8.04141e-06 -3.02293e-05 1.75245e-23)
(2.47524e-05 -4.61235e-05 -1.17247e-24)
(5.81906e-05 -4.35557e-05 5.06501e-24)
(2.70902e-05 4.74634e-05 -1.9684e-26)
(3.47094e-06 0.000186711 2.18123e-23)
(-1.51119e-05 9.53211e-05 2.21972e-23)
(-6.61591e-05 -2.14879e-05 -2.73918e-23)
(-3.0092e-05 -4.31157e-05 0)
(-4.22736e-06 -0.000120362 -3.26432e-23)
(-2.02644e-05 -0.000130393 -1.64622e-23)
(0.000105802 -7.00146e-05 0)
(7.03071e-05 -1.65202e-05 -1.98964e-23)
(3.88673e-05 0.000109463 0)
(9.70231e-05 0.000390682 0)
(-5.6605e-05 0.000456881 4.21336e-23)
(-5.39825e-05 0.000204646 -6.03805e-23)
(-2.5973e-05 9.40994e-05 1.69157e-23)
(-2.65169e-05 5.19694e-05 0)
(-0.00017896 -8.84039e-05 0)
(1.09307e-05 -9.51747e-05 -7.48176e-23)
(-5.35232e-05 -0.000199806 5.05143e-25)
(-2.79563e-05 -0.000150125 0)
(0.000215327 -0.000253688 3.62081e-23)
(-7.29884e-05 -8.11357e-05 0)
(0.000643619 -0.000188437 0)
(-8.86056e-05 0.000670094 -1.00375e-22)
(9.70569e-05 0.000407547 0)
(0.000433885 0.000118704 -6.40283e-23)
(1.52702e-05 0.000773235 2.35929e-24)
(0.000546014 0.00010854 4.4026e-23)
(-1.06914e-05 0.000602474 -1.08079e-22)
(0.000872862 0.00062727 1.19764e-22)
(-0.000149887 0.000266583 -1.38394e-22)
(0.000453292 7.8894e-05 7.06106e-23)
(0.00155782 0.00018792 9.2418e-23)
(-0.000374996 0.000589209 1.11306e-22)
(0.000339811 0.000421163 1.23834e-22)
(0.00182804 -0.00011804 -3.04706e-22)
(0.00038299 3.59844e-05 1.70582e-22)
(0.00250771 0.00137507 0)
(0.000988063 1.26273e-06 -1.18859e-22)
(0.00250724 0.000944576 1.45599e-22)
(-7.07872e-05 0.000320407 0)
(0.0049317 -0.00269159 -2.22726e-22)
(-0.000619687 -0.000371297 2.45886e-22)
(0.00502414 0.000780852 3.66783e-23)
(0.00512074 0.000690367 -3.4459e-22)
(0.00848726 -0.00134374 0)
(0.0111097 -0.00209089 -6.0126e-22)
(1.61482e-05 -3.96042e-05 -1.38201e-23)
(9.80769e-06 -7.68762e-05 1.44735e-23)
(2.89564e-05 -6.65526e-05 1.68514e-23)
(4.14645e-05 1.3075e-05 3.48015e-23)
(5.29684e-06 0.000221278 2.43503e-24)
(-1.09155e-05 0.000220666 -2.72041e-23)
(-6.51054e-06 0.000153591 1.30045e-23)
(-3.29456e-05 2.56178e-05 0)
(2.9154e-06 -0.000108071 1.20423e-23)
(2.10604e-05 -0.000201389 0)
(-3.14033e-06 -0.00014787 1.66255e-23)
(6.08093e-05 -1.94761e-05 0)
(-6.79461e-06 0.000141753 2.01045e-23)
(-5.59179e-05 0.000292635 0)
(1.80819e-05 0.000333983 -3.39692e-23)
(-7.20058e-05 0.000362187 1.28986e-23)
(1.72138e-05 0.000170547 3.006e-23)
(8.43889e-05 0.000139198 1.6449e-23)
(-1.89615e-05 0.000155553 -3.60971e-23)
(2.87277e-05 5.23656e-05 4.04502e-23)
(0.000116027 -0.000109466 -2.22662e-23)
(-1.86794e-05 -7.00491e-05 2.6586e-23)
(6.10676e-05 -0.000256386 0)
(9.84044e-05 -0.000171465 0)
(-5.82926e-05 4.33974e-05 -5.37863e-23)
(3.80394e-05 -3.28527e-05 2.04566e-23)
(-0.000264225 0.00102026 7.05651e-23)
(0.000367335 0.000382488 5.38394e-23)
(-0.000446571 6.20764e-05 6.54361e-23)
(0.000359649 0.000752662 2.34735e-24)
(0.000175101 0.000322739 -1.47191e-24)
(-0.00059133 0.000714548 4.56861e-23)
(0.00107381 0.000487793 -6.02396e-23)
(-0.000451691 0.000834254 0)
(0.000430844 -0.000428418 -8.09066e-23)
(0.000401503 -0.000170445 -1.78133e-22)
(-4.68076e-06 0.00111158 0)
(0.000905275 0.000674334 -1.01912e-23)
(0.000682114 -0.000502657 2.18823e-22)
(0.000116976 -0.000176553 -9.93096e-23)
(0.0024658 0.00100151 -9.70081e-24)
(-0.000260016 0.000967772 1.13207e-22)
(0.00243734 0.000660454 -1.48475e-22)
(0.00309849 0.000320767 1.71968e-22)
(-0.000780534 -0.000269876 -1.9001e-22)
(0.0063722 0.000419768 -2.24574e-22)
(0.00321321 0.00121217 2.74994e-22)
(0.00832913 -0.000884174 7.04039e-22)
(0.00328446 -0.00262277 -1.88382e-22)
(0.0110932 0.00038116 0)
(2.47738e-05 -7.1133e-05 1.43648e-23)
(3.42324e-06 -0.000131378 -2.74013e-23)
(3.24222e-05 -0.000104499 -3.14717e-24)
(4.29661e-05 1.13251e-05 -1.02001e-23)
(3.73401e-05 0.00030594 0)
(1.55091e-06 0.000261247 -2.13135e-24)
(9.63633e-06 0.000173171 -7.97262e-24)
(-1.38687e-05 1.94816e-05 0)
(-7.56285e-06 -0.00012854 -1.21368e-23)
(2.71531e-05 -0.000209929 -3.00773e-24)
(-4.86736e-05 -0.00019188 -1.27336e-25)
(2.10586e-05 -6.67719e-05 1.62916e-23)
(4.81279e-05 0.000140099 -1.42653e-23)
(-3.7929e-05 0.000353437 -7.73327e-24)
(0.000111849 0.000351148 2.22156e-23)
(-0.000105942 0.000362622 9.72648e-24)
(5.16261e-05 0.000129625 0)
(-1.27098e-06 3.12772e-05 -7.22e-24)
(-5.24879e-05 0.00020139 -6.04059e-24)
(0.000102814 -0.000114566 9.09681e-24)
(-0.000143795 -0.000112251 -2.00981e-23)
(0.000155509 -5.27479e-05 2.27577e-23)
(2.99355e-05 -0.00029332 -1.25928e-23)
(7.27328e-05 -0.000196519 0)
(-3.669e-05 0.000240954 3.54411e-23)
(0.000227588 -0.000125511 1.70135e-23)
(0.000105393 0.000965059 -4.67809e-23)
(0.000296605 0.000523206 -2.70012e-23)
(0.00016281 1.62861e-05 -2.60806e-23)
(-5.97555e-05 0.0007927 3.72634e-23)
(0.000764557 0.000354391 0)
(-0.00051452 0.000590285 -4.67556e-23)
(0.00131149 0.000249952 0)
(-1.38231e-05 0.00123362 -6.08152e-23)
(0.000351525 -0.000159123 5.11351e-24)
(0.000957488 -0.000258458 8.51207e-23)
(0.000505324 0.00061001 0)
(0.000789274 0.000946213 -1.21762e-22)
(0.0016857 -0.000932106 -2.76599e-24)
(0.000450108 -0.000541778 -7.56229e-23)
(0.00266571 0.000419833 -1.73039e-22)
(0.00142624 0.000297621 -1.04156e-22)
(0.00292583 0.000232 8.53159e-24)
(0.00210236 0.000506493 1.14695e-23)
(0.00312594 -0.00107682 0)
(0.00519686 -0.00208678 2.36995e-22)
(0.000879932 0.0004306 -1.71863e-23)
(0.00789985 -0.00132346 -2.97726e-22)
(-0.000376566 -0.00616097 5.58737e-22)
(0.0103328 -0.00014257 -2.40522e-22)
(2.8463e-05 -0.000103618 1.59172e-25)
(4.06281e-06 -0.000175409 1.22299e-23)
(3.87e-05 -0.000154048 -1.34645e-23)
(3.49114e-05 -1.93168e-05 -2.53971e-24)
(5.09639e-05 0.000363203 7.41014e-25)
(1.09333e-05 0.00033979 3.76579e-24)
(-8.86597e-06 0.000217782 -8.42602e-25)
(3.03329e-05 3.99805e-05 7.07043e-24)
(-2.97544e-05 -8.95314e-05 0)
(1.79139e-06 -0.000172976 -4.12636e-24)
(3.84591e-05 -0.000222733 -4.68549e-24)
(-6.86707e-05 -0.000118649 -1.01707e-23)
(0.000106349 -1.85934e-05 1.43384e-23)
(-7.70874e-06 0.000264072 2.79647e-24)
(1.81324e-05 0.000530657 -3.75564e-24)
(0.000109969 0.000418823 7.44748e-25)
(-0.000111279 0.000207126 -4.77511e-24)
(0.000187754 -2.20989e-05 5.14907e-24)
(-8.12054e-05 0.000388439 4.4348e-24)
(5.31559e-05 9.23782e-06 1.07437e-23)
(0.000105423 -0.000147543 6.1046e-24)
(8.40538e-05 -0.000209027 7.18903e-24)
(0.000134683 -0.000279528 0)
(-4.46009e-05 0.000285572 9.15789e-24)
(0.000235635 -0.000207532 -1.35859e-23)
(-9.16508e-05 -0.000856087 1.00232e-23)
(8.97915e-05 0.000163766 0)
(0.000341666 0.0016307 0)
(0.000219019 -0.000342214 5.07391e-23)
(4.53769e-05 0.00065798 -2.62926e-23)
(0.000555207 0.000561709 -5.95208e-24)
(9.64726e-07 -0.000442346 3.57442e-23)
(0.000791467 0.000489226 1.82724e-23)
(0.000435554 0.00127044 2.54936e-23)
(0.000953305 0.0004662 3.48252e-23)
(0.000969089 -0.0011104 3.68173e-23)
(0.00044024 0.000152164 -4.02712e-23)
(0.00108906 0.00140452 9.04416e-23)
(0.00141505 -0.000859251 -5.45759e-23)
(0.00119712 -0.00128979 6.55335e-23)
(0.00108105 -0.00108543 1.31653e-23)
(0.00164098 -0.000607862 -3.90468e-23)
(0.00160035 0.000927361 4.76958e-23)
(0.00463138 -0.00140159 8.87008e-24)
(-0.00144324 -7.07743e-05 -1.42069e-23)
(0.00618893 -0.00567049 8.14384e-23)
(0.00154729 0.000247573 1.08093e-22)
(0.00809877 0.000881278 0)
(-0.00148047 -0.00818401 -1.75058e-22)
(0.0103137 -0.00455983 1.79499e-24)
(3.1767e-05 -0.000141746 1.05058e-24)
(1.16042e-05 -0.000224392 7.78128e-25)
(2.72949e-05 -0.00020718 0)
(2.79311e-05 -6.0431e-05 -3.87172e-24)
(4.74412e-05 0.000418779 -3.33039e-25)
(3.27201e-05 0.000393561 -4.05344e-24)
(-1.25118e-05 0.000257513 4.81004e-26)
(8.76318e-06 3.1898e-05 -5.79859e-24)
(2.32795e-05 -9.42029e-05 3.44841e-25)
(-1.94051e-05 -0.000158077 6.33098e-24)
(7.27547e-05 -0.000267175 0)
(-8.09754e-06 -7.14879e-05 0)
(7.73107e-06 9.66105e-06 1.64386e-24)
(9.23613e-05 0.000107966 1.43417e-24)
(-6.14352e-05 0.000651024 1.97405e-24)
(0.000104896 0.000371161 -7.35128e-24)
(1.34385e-06 0.000131738 -2.78299e-24)
(4.70626e-05 7.04359e-05 3.00206e-24)
(7.83741e-05 0.000240382 9.61662e-24)
(7.26136e-05 -9.36785e-05 -8.61684e-24)
(0.000145304 -0.00045601 -1.34936e-23)
(2.02296e-05 0.000134713 -1.88307e-24)
(0.000243425 -0.000394282 -6.51982e-24)
(-2.41139e-05 2.47849e-05 1.74074e-24)
(0.000392139 0.000572378 0)
(3.43274e-05 -0.000423924 -2.09013e-23)
(-2.6227e-05 -0.000218973 8.56761e-24)
(0.000310206 0.000953921 -6.93838e-24)
(0.000295257 -0.000161226 7.56449e-24)
(0.000143876 0.000580334 -9.51665e-24)
(0.000305718 0.000898435 -3.54539e-23)
(0.000716015 -0.00103239 2.71531e-24)
(-0.000525227 0.000787577 -3.01333e-24)
(0.00178772 -0.00150684 -3.54379e-23)
(-0.000660553 0.000867577 4.27448e-24)
(0.00131222 0.000600991 0)
(0.00093465 -0.00150147 0)
(0.000467981 0.00158523 -2.8719e-23)
(0.00203733 -0.00283774 4.00277e-23)
(0.000132156 -0.000510688 -9.21636e-23)
(0.0018253 0.00122334 2.99148e-23)
(0.000128913 -0.00278059 4.03008e-23)
(0.00191033 -0.00497582 -1.62323e-23)
(0.00315517 0.00329214 0)
(-0.000868043 0.000971715 -4.06151e-23)
(0.00636633 -0.00969669 0)
(-0.00216091 -0.000561944 0)
(0.008441 -0.000318288 0)
(-0.00294487 -0.00132056 1.66553e-22)
(0.0104995 0.000436452 -6.20191e-22)
(1.04611e-05 -0.000184801 -2.30935e-24)
(1.94317e-05 -0.000277121 7.72093e-25)
(3.2745e-05 -0.000212618 -4.64572e-26)
(2.9934e-06 -8.52981e-05 -2.13236e-25)
(4.03314e-05 0.000352034 -1.31593e-25)
(3.84699e-05 0.000512986 -2.77346e-26)
(-3.05207e-06 0.000316769 -4.00866e-25)
(3.58288e-05 2.17745e-05 2.20774e-24)
(1.35464e-05 -0.000134571 7.69475e-25)
(-5.52353e-06 -0.000169402 1.77981e-26)
(8.3205e-05 -0.000297302 -8.04592e-25)
(-1.27203e-05 -5.84908e-05 -8.48682e-25)
(3.8716e-06 5.95308e-07 2.26435e-24)
(9.92661e-05 9.63644e-05 0)
(-3.79502e-05 0.000655208 0)
(9.8262e-05 0.000296468 7.94423e-25)
(5.36909e-05 0.00014662 -2.11514e-24)
(3.03746e-05 9.15043e-05 2.33965e-25)
(0.000116103 0.000132753 -2.46372e-25)
(-2.09961e-07 1.20817e-05 1.11992e-24)
(0.000210868 -0.000405403 -2.3068e-24)
(-9.13489e-06 0.000226472 1.2294e-24)
(-5.10706e-05 -0.000668396 0)
(0.000340161 -0.000510757 -4.01115e-24)
(-6.83305e-05 0.00073549 0)
(0.000539882 -0.000534074 3.1385e-24)
(-0.000272685 2.02799e-05 -3.14451e-24)
(0.000253384 0.000220422 -2.93747e-24)
(0.000501264 0.000325992 3.30662e-24)
(0.000121611 7.34257e-05 4.02292e-25)
(0.000363742 0.000233803 7.35286e-24)
(0.000628748 0.000203624 9.65653e-24)
(0.000353803 -6.29901e-05 -9.90984e-25)
(0.000281883 -0.000140295 0)
(0.000566362 -0.000238018 1.6078e-23)
(0.000877682 -0.000257318 0)
(0.000861126 -0.00113475 -2.79262e-24)
(6.11395e-05 0.00116767 -1.77197e-23)
(0.0023098 -0.00321258 1.08794e-23)
(-0.000364014 0.00132789 -1.42725e-23)
(0.00204292 -0.00179523 4.05912e-23)
(0.00158733 0.000157471 -1.8611e-23)
(-0.00206908 -0.00563131 -3.39186e-23)
(0.00601371 -0.00363721 0)
(-0.00200788 0.00743339 4.79602e-23)
(0.00318533 -0.0140626 0)
(0.00107087 0.00139676 2.55559e-23)
(0.0011067 -0.004655 -2.81321e-23)
(0.00494794 -0.00887284 -1.90709e-23)
(0.00429516 0.00913964 0)
(1.42262e-06 -0.000195207 1.20006e-24)
(2.88542e-05 -0.000392834 -6.44476e-25)
(3.68524e-05 -0.000175844 -7.35178e-25)
(-3.42758e-06 -1.96548e-05 -5.53437e-25)
(3.39246e-06 0.000256644 2.26867e-27)
(2.81021e-05 0.000543532 1.32142e-24)
(2.7543e-05 0.000303967 1.89575e-24)
(2.17424e-05 3.44568e-05 -1.37466e-24)
(5.28803e-06 -5.97271e-05 -1.46575e-24)
(1.72509e-05 -0.000300376 -5.66326e-25)
(4.63228e-05 -0.000223118 1.05021e-24)
(-1.82355e-05 1.50961e-05 1.95982e-24)
(9.21506e-05 -0.000145933 -1.83096e-24)
(-5.98666e-05 0.000117372 -1.51264e-24)
(4.69938e-05 0.000477576 4.94728e-25)
(9.23819e-05 0.000459279 8.64583e-25)
(2.87786e-05 0.00012466 1.59618e-24)
(6.49643e-05 -0.00012436 -1.53374e-24)
(2.52384e-05 0.000467852 0)
(0.000104088 -0.000378187 9.71124e-25)
(7.6066e-05 -0.000442361 0)
(2.53308e-05 0.000441454 3.28144e-24)
(0.00032143 -0.000719232 -3.93841e-24)
(-0.000160977 -0.000394936 1.38918e-24)
(0.000107592 0.000417427 -1.41006e-24)
(0.000399571 -0.000418407 1.7544e-25)
(-0.000212123 -0.000109008 0)
(0.000188083 0.000794833 1.54361e-24)
(0.000525746 -0.00101098 1.57064e-24)
(-0.000418186 0.000261104 -4.12183e-24)
(0.000486996 0.000755862 2.13197e-24)
(0.000480324 -0.00102798 1.71667e-24)
(-0.000118762 0.00151271 1.23125e-24)
(0.000539639 -0.00240558 0)
(0.000292316 -6.97745e-05 -1.02007e-24)
(0.00068835 0.000775433 1.50373e-24)
(-0.000206659 -0.00255237 2.39763e-24)
(0.00104257 0.00203982 3.29564e-24)
(0.00123124 -0.00533857 7.47649e-26)
(-0.00200117 3.11128e-05 3.99923e-24)
(0.00242144 0.000608262 3.77912e-25)
(0.00206076 -0.00212075 1.13699e-24)
(0.000967805 0.00041824 -5.63756e-25)
(-0.000921003 -0.0127907 -1.96086e-24)
(0.000624997 0.0122433 -3.63289e-24)
(0.00660864 -0.00729452 1.81588e-23)
(-0.00414779 -0.0121807 -2.66823e-23)
(0.00242645 0.00919659 8.36085e-24)
(0.00435499 -0.0199945 1.15189e-23)
(-0.00548463 0.00306913 1.0441e-23)
(-2.55034e-06 -0.000261567 0)
(2.18922e-05 -0.000409306 -2.54418e-24)
(1.95306e-05 -0.000155282 2.75895e-24)
(8.83536e-06 4.87261e-05 0)
(-3.92555e-05 0.000226929 0)
(3.28714e-05 0.000490555 -3.40461e-24)
(1.67358e-05 0.000302021 -3.6582e-24)
(4.54869e-06 6.17685e-05 0)
(8.90953e-06 -2.47884e-05 0)
(8.19081e-06 -0.000343519 0)
(3.45599e-06 -0.000248626 0)
(2.64594e-05 -7.8252e-05 0)
(6.14709e-05 -7.37552e-05 0)
(-1.79048e-05 0.000372996 0)
(-1.17812e-05 0.000156153 -3.28414e-24)
(1.38452e-05 0.000298437 0)
(0.000187439 0.000339209 3.77388e-24)
(-0.000141393 -4.4377e-05 4.13888e-24)
(6.65639e-05 0.000306148 0)
(0.000164837 -0.000491117 0)
(-6.75721e-05 -0.000134895 0)
(-5.75596e-05 -9.88466e-05 -5.63057e-24)
(0.000268696 -0.000356614 0)
(-1.20292e-05 -0.000215808 0)
(-2.63284e-05 -0.000690585 0)
(0.000271687 0.000950322 3.8867e-24)
(-0.000147087 -0.000448111 0)
(0.000128345 -0.000458563 -4.61581e-24)
(0.000161144 0.000200675 0)
(6.86207e-05 0.000417539 0)
(-7.32027e-05 -7.97057e-05 0)
(0.000170469 -0.000675252 0)
(0.000354557 0.00140341 -6.8806e-24)
(0.000244904 -0.00304209 0)
(-0.00069237 0.00101769 0)
(0.000958437 0.000508445 0)
(-0.000249706 -0.00307232 0)
(4.98521e-05 -9.21338e-05 5.34077e-24)
(0.00139563 0.00171072 0)
(-0.00200027 -0.00453015 -6.45694e-24)
(0.000664855 -0.00325882 0)
(0.00126104 0.000109143 0)
(0.00195605 -0.00311112 0)
(-0.00266679 0.00352453 0)
(-0.00118061 -0.0153206 -4.37103e-24)
(0.00795781 0.00496325 0)
(-0.00750809 0.00110551 0)
(0.00442227 -0.0147781 -3.23994e-24)
(0.000335823 2.25479e-05 0)
(-0.00292551 -0.00245097 -1.54224e-23)
(-1.86479e-05 -0.000294511 8.15077e-24)
(9.83189e-06 -0.000389123 -6.54689e-24)
(5.57369e-07 -0.000150982 -2.62974e-24)
(-4.30767e-06 8.49103e-05 1.52191e-24)
(-3.6298e-05 0.000252967 -2.72074e-27)
(1.34919e-05 0.000387606 2.06901e-24)
(1.17221e-05 0.00031165 9.68801e-25)
(-3.02123e-05 8.36026e-05 -6.33379e-24)
(3.21131e-05 -5.4369e-05 -6.79719e-24)
(-4.22675e-05 -0.000236559 1.57164e-24)
(4.00437e-05 -0.000388886 7.90583e-24)
(1.43746e-05 -0.000107272 -3.67639e-24)
(5.3356e-06 -3.49772e-06 -7.27429e-24)
(2.37147e-05 0.000404185 2.17298e-24)
(6.40358e-06 0.00012838 4.39675e-24)
(-3.02002e-05 6.2072e-05 -2.52611e-24)
(0.000154994 0.000600037 7.69512e-24)
(-0.000165088 0.000183883 -2.60386e-24)
(-5.79945e-06 -0.000318853 -3.27633e-24)
(0.000139026 -0.00011987 1.17285e-23)
(-9.4395e-05 6.87211e-05 0)
(-2.0498e-05 -0.00056877 -1.44108e-23)
(9.29101e-05 -0.00030591 1.35799e-23)
(5.96766e-05 0.000125275 -5.0795e-24)
(-0.000180675 -0.000805908 0)
(0.000248552 0.00068392 -2.52735e-24)
(-0.000220533 -3.31609e-05 0)
(7.25235e-05 -0.000981092 -4.44191e-24)
(0.00029634 0.00132931 9.75528e-24)
(-0.000522553 -0.000720413 6.62809e-24)
(0.000340243 -0.000458273 -9.33151e-24)
(4.64563e-05 0.000786837 -1.11562e-23)
(-0.000209323 -0.00146805 2.23638e-24)
(0.000533391 0.00123063 0)
(-0.00145668 -0.00135862 2.30556e-23)
(0.00068219 -0.00201763 -3.42795e-23)
(0.000953322 0.00317694 -1.37818e-23)
(-0.00327797 -0.00348464 -3.12077e-23)
(0.00151252 -0.0021908 0)
(0.00199302 0.000239873 -2.43691e-23)
(-0.00376028 -0.00419906 1.47836e-23)
(0.00197819 0.00136255 1.79083e-23)
(-0.00205056 -0.00332063 -1.91356e-24)
(0.000621311 0.00051107 -3.52036e-23)
(0.00165437 -0.0086521 4.69034e-23)
(-0.00467402 0.000894736 3.31997e-23)
(0.00023901 -0.00152186 -3.75217e-23)
(0.00298197 -0.00987223 1.96995e-23)
(-0.00139204 0.0053037 -1.02014e-22)
(-0.00730539 -0.0181179 3.6063e-23)
(-3.5889e-05 -0.000255053 1.17251e-23)
(4.41943e-06 -0.00036616 2.86527e-23)
(-2.01368e-05 -0.000166981 6.5569e-25)
(-2.4519e-05 0.000101748 2.36124e-23)
(-1.91964e-05 0.000265936 1.47411e-24)
(-1.37107e-05 0.00032637 1.18888e-23)
(2.34709e-05 0.00030306 1.7836e-23)
(-4.37405e-05 0.000159537 -1.28962e-23)
(5.41129e-06 -0.00016373 -9.95107e-24)
(3.15872e-05 -0.000269974 4.18533e-24)
(-3.458e-05 -0.000401378 -1.69008e-23)
(2.15274e-05 -6.05482e-05 4.86133e-24)
(6.94464e-06 9.83597e-05 3.95462e-24)
(-4.0245e-05 0.000180807 5.6897e-24)
(7.66074e-05 0.000320404 0)
(-6.54975e-05 9.92706e-05 -7.87456e-24)
(-4.12082e-05 0.000477519 -2.00046e-23)
(0.000122375 0.000229208 -8.06471e-24)
(-0.000167317 -0.000356306 8.71077e-24)
(0.000171274 0.000100491 -2.86055e-23)
(-0.000202289 -0.00011038 1.21997e-23)
(-1.87246e-05 -0.000501639 2.08532e-23)
(0.000100607 -0.000385941 0)
(-9.22812e-06 -0.000106706 2.95108e-23)
(-9.35659e-05 -2.2351e-05 0)
(-9.50816e-05 1.33326e-06 -1.7944e-23)
(0.000236619 -0.000148514 2.0032e-23)
(-0.000369283 -0.000601502 0)
(0.000257075 0.00114001 -9.55179e-24)
(-0.000533312 -0.000946726 1.05869e-23)
(0.000175338 0.000507127 -2.88483e-23)
(-0.000452111 0.000652022 -3.35251e-23)
(-0.000832193 -0.0010434 1.46445e-23)
(0.0011099 0.00193376 0)
(-0.00177868 -0.00146486 -4.7611e-23)
(0.000336751 -0.0019194 0)
(0.000161638 0.00165521 2.344e-23)
(-0.001093 -0.00251284 6.14008e-23)
(0.00050397 -0.00209142 3.39372e-23)
(-0.00165274 0.00202134 -2.18807e-23)
(-0.000507974 -0.00306119 -5.11861e-24)
(0.000474398 -0.000641191 -4.77759e-23)
(-0.00361212 -0.00469063 6.5455e-23)
(0.00288219 -0.0010352 0)
(-0.00476871 -0.00177221 -1.13083e-22)
(0.00224133 -0.00159118 0)
(-0.00639654 -0.00408629 4.80664e-23)
(0.00375704 -0.00740294 -5.44498e-23)
(-0.00333184 -0.00118305 6.04564e-23)
(-0.00256243 -0.00758436 0)
(-4.23018e-05 -0.00020396 -1.97195e-23)
(3.35247e-06 -0.000305057 -2.07671e-23)
(-4.23256e-05 -0.000143835 0)
(-3.52248e-05 8.13458e-05 3.18514e-24)
(-1.56098e-05 0.000225043 -3.32543e-24)
(-2.75965e-05 0.000288161 2.06677e-23)
(8.56701e-06 0.000285598 -1.44058e-23)
(-1.93706e-05 0.000167348 4.66627e-23)
(2.04354e-06 -0.000208758 2.11324e-23)
(4.35965e-05 -0.000250171 -4.1059e-23)
(-5.43471e-05 -0.000346098 1.04603e-23)
(1.2666e-05 -8.28818e-05 -1.12586e-23)
(-1.50636e-06 7.74875e-05 1.22754e-23)
(-5.02467e-05 0.00022715 -5.46969e-23)
(7.76216e-05 0.000307146 1.43368e-23)
(-7.74396e-05 0.000112322 4.78389e-23)
(7.23452e-05 0.000399213 0)
(-3.25559e-05 0.000239485 0)
(-8.66187e-05 -0.000292599 -4.33072e-23)
(-2.54859e-06 6.86829e-05 8.97598e-23)
(-9.82311e-05 -5.52924e-05 -4.50892e-23)
(8.95965e-05 -0.000635491 5.45069e-23)
(-0.000221018 -0.000410148 -2.9283e-23)
(4.81402e-05 0.000456154 3.63865e-23)
(-0.000248757 -0.000369124 0)
(0.000219191 -2.22504e-06 5.90509e-23)
(-0.000155269 5.00407e-05 -1.98413e-23)
(-0.000118974 5.62627e-05 -2.44409e-23)
(-0.000105588 0.000778124 2.65328e-23)
(-0.000316163 -0.000450699 -2.93943e-23)
(0.000155236 0.000909259 9.68715e-23)
(-0.000603618 7.15193e-05 6.94417e-23)
(9.87439e-05 -0.00110752 8.54123e-23)
(-0.000447923 0.000337662 -9.17551e-23)
(0.000104446 -0.00155208 9.81413e-23)
(-0.000775767 0.000260721 0)
(-0.000458816 0.00156956 0)
(-0.000863281 -0.00342488 4.65003e-23)
(0.00017297 0.000661187 8.57112e-23)
(-0.00247849 -0.000572672 -1.92976e-22)
(0.00125646 -0.00303291 1.55984e-22)
(-0.00148819 -0.00129681 -6.99127e-23)
(-0.00223057 0.00161645 1.59716e-23)
(-0.000823153 -0.00394105 0)
(-0.000697728 -0.0031565 8.42566e-23)
(-0.00270377 0.00240605 0)
(-0.00320311 -0.00677133 0)
(0.00258186 -0.00853168 0)
(-0.00798573 0.00416025 1.70978e-22)
(0.00293931 -0.00872004 -1.83327e-22)
(-3.8413e-05 -0.000147796 7.36079e-25)
(-2.75594e-07 -0.000239184 -5.21249e-23)
(-4.5033e-05 -0.000121711 5.13615e-23)
(-3.67676e-05 7.16149e-05 2.59834e-24)
(-3.43692e-05 0.000219684 3.80082e-24)
(-2.34367e-05 0.000286309 -3.44205e-23)
(-4.88941e-06 0.000262136 -4.326e-24)
(-2.35909e-05 0.00010425 -3.51016e-23)
(5.04569e-05 -0.000243842 1.00137e-23)
(-1.51423e-06 -0.000251597 5.16805e-23)
(-3.96517e-05 -0.000285712 -2.33726e-23)
(6.4867e-05 -4.56183e-05 7.76363e-23)
(-0.000107863 7.01083e-05 -5.67217e-23)
(2.59572e-05 0.000171724 -1.75068e-23)
(2.95962e-05 0.000205129 -1.61867e-23)
(-7.47165e-05 0.000224841 2.06178e-23)
(6.35407e-05 0.000443618 -1.91801e-23)
(-0.000148432 0.000375287 2.06822e-23)
(0.000136698 -1.78882e-05 -4.0302e-24)
(-0.000182585 -0.000229783 -4.67896e-23)
(6.28073e-05 -0.000210674 -2.5454e-23)
(9.07917e-05 -0.000474372 -5.77855e-23)
(-0.000236651 -0.000131344 3.23073e-23)
(0.000145911 0.000253265 -3.3614e-23)
(-0.000296351 -0.000816775 0)
(0.000267782 -1.69345e-05 4.44523e-24)
(-0.00025555 0.000223957 0)
(-6.29609e-05 0.000566704 0)
(-0.000130496 0.000510055 -1.84089e-24)
(-0.000143328 -0.000787519 -6.55315e-23)
(-0.000118268 0.0007393 -1.43758e-22)
(-4.47095e-05 0.000556363 8.1956e-23)
(-0.00056224 -0.000496868 -4.33334e-23)
(0.000147972 0.000687617 5.31594e-23)
(-0.00123902 -0.000741558 -2.42185e-22)
(7.69629e-05 0.00164353 1.32398e-22)
(-0.0015233 -0.000920705 3.01346e-24)
(-0.000641304 -0.00188356 -7.68494e-23)
(0.000322559 0.000910926 -9.39977e-23)
(-0.00324004 -0.000585607 1.11992e-22)
(0.00119075 -0.00275422 -2.56143e-22)
(-0.00324053 0.00173306 6.78287e-23)
(-0.000804469 0.000780562 -7.73717e-23)
(-0.00198127 -0.00736889 -4.16385e-22)
(-0.00312767 0.00437186 -4.35091e-24)
(-0.000675945 -0.00242001 1.22348e-22)
(-0.00432073 -0.0061712 1.48768e-22)
(-0.0040344 -0.00403131 0)
(-0.00271934 0.0112181 4.39848e-22)
(-0.00533536 -0.0152237 -1.86168e-22)
(-3.06776e-05 -0.000100166 -5.01902e-23)
(-2.66996e-06 -0.000169118 1.0461e-22)
(-3.94821e-05 -9.08228e-05 2.7564e-24)
(-3.88578e-05 4.83641e-05 3.21258e-23)
(-2.70534e-05 0.000177722 0)
(-1.05843e-05 0.000240768 -8.55599e-24)
(-1.63275e-05 0.000188439 4.68788e-23)
(1.98543e-05 -1.10937e-05 0)
(1.27667e-05 -0.000200947 4.37279e-23)
(-2.61943e-05 -0.000250245 -1.15364e-23)
(4.13839e-05 -0.000166387 -6.35525e-26)
(-5.38417e-05 -4.11813e-05 -3.85491e-23)
(-2.07016e-05 6.51917e-05 5.63617e-23)
(5.23572e-05 0.000228212 3.04398e-23)
(-0.000109644 0.000222104 -7.02977e-23)
(7.58105e-05 0.000286437 -3.59225e-23)
(-4.45998e-05 0.000348288 0)
(-3.01719e-05 0.000249424 -2.21854e-23)
(0.000120216 -0.00025141 7.03636e-23)
(-0.000103269 -0.000261952 2.6397e-23)
(0.000169447 -0.000292754 -5.74351e-23)
(-0.000179074 -0.000353795 6.29993e-23)
(0.000139967 0.000199016 -3.42915e-23)
(-0.000177952 7.53627e-06 0)
(2.48695e-05 -0.000539332 -8.63241e-23)
(-9.5559e-05 0.000181023 -4.45721e-23)
(-0.000131738 0.000631297 1.05787e-22)
(-0.000106729 0.000439011 5.88571e-23)
(-0.000103618 -6.5674e-05 6.11376e-23)
(-9.56763e-05 5.61277e-05 -7.31245e-23)
(-0.000238326 0.000633097 0)
(4.32426e-05 0.000378836 9.22655e-23)
(-0.000602151 0.000197586 0)
(0.000259065 0.000128174 -1.14959e-22)
(-0.0012965 -0.000364359 2.47052e-22)
(0.000812985 0.00223234 -1.47504e-22)
(-0.0016377 -0.00180037 0)
(-0.000396261 -0.00191831 1.92879e-22)
(-0.000180107 0.00326898 2.19599e-22)
(-0.00244138 -0.00127895 1.25696e-22)
(-5.56384e-05 -0.00264256 2.76599e-22)
(-0.00276401 0.00339109 -1.55021e-22)
(-0.000677038 -0.0024649 -3.82784e-22)
(-0.00277204 -0.00234423 4.16684e-22)
(-0.00357153 0.00249963 0)
(-0.00057301 -0.00336562 -3.13197e-22)
(-0.00582037 -0.00181981 7.06935e-22)
(-0.00193376 0.000629184 -5.95291e-22)
(-0.0110008 0.000218207 -2.34336e-22)
(0.00393985 -0.010913 -5.41316e-22)
(-2.35256e-05 -5.94137e-05 4.99171e-23)
(-6.71782e-06 -0.000107976 -5.32138e-23)
(-3.25644e-05 -6.50105e-05 -5.31923e-23)
(-3.92617e-05 3.68538e-05 -1.27604e-22)
(-2.04975e-05 0.000144783 8.32327e-24)
(1.54264e-06 0.00021382 5.43793e-23)
(7.73458e-06 0.000163107 -2.78293e-23)
(2.10452e-05 -1.08072e-05 -1.03155e-23)
(-2.41891e-05 -0.000163448 -3.23047e-23)
(-3.05692e-05 -0.000221581 0)
(9.04311e-06 -0.000121736 -5.22135e-23)
(-4.46942e-05 -4.09717e-05 0)
(1.46766e-05 5.37547e-05 -6.11113e-23)
(2.84421e-05 0.000218333 0)
(-6.37298e-05 0.000263814 3.38175e-23)
(6.18713e-05 0.000267376 3.85043e-23)
(1.83723e-06 0.000379673 -8.50395e-23)
(-5.63839e-05 0.000256115 4.62669e-23)
(4.28575e-05 -0.000286335 -1.00394e-22)
(-7.28719e-05 -6.32115e-05 1.09686e-22)
(-0.000149616 -0.000200855 -5.95512e-23)
(4.02412e-05 -0.000325684 -6.67088e-23)
(-0.000172786 0.000210875 3.64007e-23)
(3.48922e-05 -0.000217561 -3.93123e-23)
(0.000167885 -0.000252522 4.06034e-23)
(-0.00036671 0.000111234 4.79514e-23)
(0.000397451 0.000526032 -2.66747e-22)
(-3.88771e-06 0.000479563 9.15996e-25)
(-9.53073e-05 3.98139e-05 -1.34618e-22)
(0.000147809 -3.87565e-05 -1.53109e-22)
(-5.5024e-05 0.000560693 1.65177e-22)
(0.000110446 0.000422638 -9.01712e-23)
(-0.00032267 0.000524389 1.0538e-22)
(0.000295921 9.912e-05 0)
(-0.000856827 -2.71888e-05 1.34616e-22)
(0.000543351 0.00158675 4.48864e-22)
(-0.000757771 -0.00197964 -1.67544e-22)
(-0.000261039 -0.000409186 2.12922e-22)
(8.08816e-05 0.00241544 -5.62964e-22)
(-0.00190811 -0.00149307 1.41319e-22)
(0.00148333 -0.00124329 -2.81625e-22)
(-0.00278012 0.0032065 -1.24875e-23)
(0.00153645 -0.00207127 3.84151e-22)
(-0.00465643 -0.000623109 2.35541e-22)
(0.00115878 0.00237727 -2.60338e-22)
(-0.00674737 -0.00325935 2.96877e-22)
(-0.000982091 0.00170439 -1.09153e-21)
(-0.00490629 -0.000869919 -4.59663e-23)
(-0.00136887 0.00431701 2.3314e-22)
(-0.0068264 -0.0141325 0)
(-8.02653e-06 -1.19401e-05 0)
(-1.67593e-05 -7.13278e-05 5.53087e-23)
(-3.45915e-05 -3.65209e-05 -3.67447e-24)
(-4.87584e-05 2.74276e-05 1.30036e-22)
(-3.41649e-05 4.61481e-05 0)
(-2.25001e-05 7.16562e-05 -6.26359e-23)
(1.09525e-05 9.70321e-05 6.88055e-23)
(8.06247e-05 7.34064e-05 0)
(-4.26855e-06 -0.000107379 0)
(-2.38955e-05 -0.000253584 -9.83161e-23)
(-2.28776e-06 -0.000182797 5.17172e-23)
(-0.000109422 -3.65382e-05 0)
(-6.84866e-05 6.41105e-05 6.04788e-23)
(-4.9936e-05 0.000228541 0)
(-9.33721e-05 0.000247428 0)
(4.14192e-08 0.000182161 1.18497e-22)
(1.1546e-06 0.000225906 -7.18023e-25)
(0.00017937 0.000270127 4.58183e-23)
(-2.33797e-05 -0.000144718 0)
(0.000163853 -3.81431e-05 0)
(3.05546e-05 -0.000158677 -1.85292e-22)
(-0.000109846 -0.000416663 1.31949e-22)
(0.000171668 -1.30491e-05 7.39261e-23)
(-0.000322182 -0.000345579 2.19583e-24)
(0.000125135 -0.000353855 0)
(-0.000391593 0.000151111 0)
(-0.000164547 0.000233623 -3.88895e-24)
(-7.45273e-05 -1.2505e-06 0)
(-0.00022864 -1.0194e-06 1.31791e-22)
(-0.000338104 6.59494e-05 2.97731e-22)
(-0.000421626 0.000524741 -8.18712e-23)
(-0.000265774 0.000437768 -1.89907e-22)
(-0.000522995 0.000552688 4.14644e-24)
(-0.000179923 0.00017378 -2.3635e-22)
(-0.00148129 5.74562e-05 -1.35255e-22)
(0.000895158 0.00100981 -1.47265e-22)
(-0.00198965 -0.00221164 1.79309e-22)
(-0.000218337 0.000435963 -1.90751e-22)
(-0.000789428 0.00150853 -7.0103e-24)
(-0.00238754 -0.000659913 -5.18023e-22)
(-0.00111446 -0.00144754 2.92126e-22)
(-0.00381042 0.00267763 1.67183e-22)
(0.000951495 -0.00230317 -1.91315e-22)
(-0.00437573 0.000413564 0)
(0.00130366 -0.00116586 -2.82495e-22)
(-0.00257062 0.00251787 -2.8237e-23)
(-0.00445502 -9.65708e-05 7.58357e-22)
(-0.0057571 -0.000211111 4.32855e-22)
(-0.00902497 -0.0042289 0)
(-0.0052001 -0.00662383 -6.83945e-22)
(0.000125799 -1.61696e-05 -2.47837e-24)
(-5.26646e-05 8.86765e-06 -1.86585e-24)
(-2.86055e-05 -1.17065e-05 -1.91877e-25)
(6.11586e-05 -1.33747e-05 2.17078e-24)
(7.86943e-05 -1.14371e-05 4.84408e-24)
(7.11733e-05 -1.83846e-05 -4.85589e-24)
(8.01456e-05 -4.73108e-06 -4.36923e-24)
(8.22783e-05 -1.43096e-05 1.08402e-23)
(5.98067e-05 -2.25908e-05 -7.38589e-24)
(6.88712e-05 -1.74031e-05 4.11141e-24)
(7.28677e-05 7.2714e-06 0)
(4.93076e-05 5.15845e-06 1.69775e-24)
(5.00572e-05 -5.14501e-06 3.1647e-24)
(6.82971e-05 1.44781e-05 5.47771e-24)
(6.90009e-05 -1.02305e-05 2.17802e-24)
(6.05027e-05 -3.96153e-05 -5.40731e-24)
(8.00576e-05 -3.4533e-06 0)
(0.000122966 2.03715e-05 -2.2371e-24)
(5.97034e-05 -3.00272e-05 4.49529e-24)
(7.60139e-05 -1.54875e-05 -2.24834e-24)
(0.000110157 8.73369e-07 2.03979e-24)
(0.000113219 -1.2683e-05 -6.33272e-24)
(0.000195097 1.15054e-05 -5.16593e-24)
(0.000212396 -5.77518e-05 4.51765e-24)
(0.000214431 -0.00010573 -3.75462e-24)
(0.000136496 -0.000202286 -1.87783e-24)
(-6.96774e-05 -0.000220043 2.24522e-24)
(-0.000146206 -0.000440447 6.65689e-24)
(-0.000199809 -0.00019755 -7.22652e-24)
(-6.53824e-06 0.000565422 3.43682e-23)
(0.000304266 0.00168221 -1.43677e-23)
(0.00103402 0.00237745 5.7774e-23)
(0.00187713 0.00286536 -2.79291e-23)
(0.00250274 0.00233317 -4.02529e-23)
(0.00469501 0.00194744 8.16929e-23)
(0.00660277 -0.00113486 -5.06533e-23)
(0.00812385 -0.00286192 -5.99235e-23)
(0.0115654 -0.0058415 0)
(0.0108654 -0.00898347 7.17139e-23)
(0.00848408 -0.0165563 6.31333e-23)
(0.00663611 -0.0248821 -6.90809e-23)
(0.000608944 -0.023395 -5.31051e-23)
(-0.00851892 -0.0426886 6.27614e-23)
(-0.021023 -0.0413495 2.3869e-23)