/*--------------------------------*- C++ -*----------------------------------*\
| =========                 |                                                 |
| \\      /  F ield         | OpenFOAM: The Open Source CFD Toolbox           |
|  \\    /   O peration     | Version:  2.3.1                                 |
|   \\  /    A nd           | Web:      www.OpenFOAM.org                      |
|    \\/     M anipulation  |                                                 |
\*---------------------------------------------------------------------------*/
FoamFile
{
    version     2.0;
    format      ascii;
    class       volScalarField;
    location    "1000";
    object      ddt0(k);
}
// * * * * * * * * * * * * * * * * * * * * * * * * * * * * * * * * * * * * * //

dimensions      [0 2 -3 0 0 0 0];

internalField   nonuniform List<scalar> 
4825
(
-1.02286e-06
-1.02201e-06
-1.02217e-06
-1.02287e-06
-1.02268e-06
-1.02198e-06
-1.02105e-06
-1.0201e-06
-1.01916e-06
-1.01963e-06
-1.02353e-06
-1.02711e-06
-1.02848e-06
-1.0282e-06
-1.02226e-06
-1.01632e-06
-1.00749e-06
-1.00704e-06
-1.00808e-06
-1.00774e-06
-1.00765e-06
-1.01457e-06
-1.01091e-06
-1.0168e-06
-1.10241e-06
-1.16613e-06
-1.06028e-06
-9.55206e-07
-9.98355e-07
-1.00501e-06
-9.91183e-07
-1.1424e-06
-1.09285e-06
-6.7617e-07
-6.53561e-07
-1.50867e-06
-1.06124e-06
1.31786e-07
-9.17328e-08
-3.254e-06
-2.70604e-06
3.44124e-08
-1.20468e-06
-2.57995e-06
5.33878e-07
-8.29825e-07
-1.05278e-06
-1.23316e-07
-1.28169e-06
-1.13027e-06
-1.02057e-06
-1.02101e-06
-1.02119e-06
-1.02098e-06
-1.02084e-06
-1.01957e-06
-1.01894e-06
-1.01782e-06
-1.01912e-06
-1.0226e-06
-1.02402e-06
-1.02622e-06
-1.02908e-06
-1.02614e-06
-1.01882e-06
-1.01027e-06
-1.00574e-06
-1.00788e-06
-1.00626e-06
-1.00538e-06
-1.00744e-06
-1.01178e-06
-1.0214e-06
-1.05544e-06
-1.10322e-06
-1.17373e-06
-1.07076e-06
-9.40923e-07
-9.73904e-07
-1.01892e-06
-1.0178e-06
-1.07683e-06
-1.0139e-06
-5.86352e-07
-6.23998e-07
-1.47008e-06
-1.49807e-06
2.33089e-07
-9.38441e-08
-2.92214e-06
-2.822e-06
-8.04588e-07
-9.87173e-07
-3.03227e-06
-4.33368e-07
-1.6894e-06
-2.1722e-06
-1.83919e-07
-5.82473e-07
-8.35565e-08
-1.02071e-06
-1.02102e-06
-1.0218e-06
-1.02211e-06
-1.01958e-06
-1.01789e-06
-1.01709e-06
-1.01689e-06
-1.01693e-06
-1.01811e-06
-1.0222e-06
-1.03282e-06
-1.04018e-06
-1.03045e-06
-1.01836e-06
-1.00864e-06
-1.00189e-06
-1.00331e-06
-1.00379e-06
-1.0005e-06
-1.00218e-06
-1.00609e-06
-1.0209e-06
-1.05586e-06
-1.06748e-06
-1.13491e-06
-1.22083e-06
-9.28191e-07
-9.50629e-07
-1.02983e-06
-9.93039e-07
-1.08604e-06
-1.27964e-06
-6.90685e-07
-3.65789e-07
-1.12234e-06
-2.09846e-06
1.10425e-07
1.25077e-07
-2.14478e-06
-2.97535e-06
-1.28682e-06
-9.76534e-07
-2.63922e-06
-7.95041e-07
-1.2784e-06
-3.40977e-06
-9.83378e-07
1.22319e-06
9.28889e-07
-1.02052e-06
-1.02138e-06
-1.02181e-06
-1.02349e-06
-1.02005e-06
-1.0166e-06
-1.01534e-06
-1.01601e-06
-1.01649e-06
-1.01776e-06
-1.02104e-06
-1.03253e-06
-1.03864e-06
-1.0391e-06
-1.01762e-06
-1.00268e-06
-9.99627e-07
-1.00448e-06
-1.00835e-06
-9.94726e-07
-1.00081e-06
-1.01568e-06
-1.04263e-06
-1.03228e-06
-9.79944e-07
-1.06877e-06
-1.38596e-06
-1.0389e-06
-9.39297e-07
-1.02823e-06
-7.61306e-07
-9.52391e-07
-1.44865e-06
-1.46321e-06
-2.16343e-07
-3.65276e-07
-1.85231e-06
-1.58264e-06
1.33118e-06
-1.6602e-07
-2.45782e-06
-1.62683e-06
-1.18244e-06
-2.20888e-06
-9.29921e-07
-9.38697e-07
-3.41646e-06
-2.63423e-06
1.26792e-06
1.0285e-06
-1.02018e-06
-1.02064e-06
-1.02164e-06
-1.02474e-06
-1.0204e-06
-1.01566e-06
-1.01379e-06
-1.01417e-06
-1.0149e-06
-1.0165e-06
-1.0217e-06
-1.03302e-06
-1.03739e-06
-1.04217e-06
-1.02092e-06
-1.00082e-06
-9.9904e-07
-1.0096e-06
-1.00643e-06
-9.88335e-07
-9.98889e-07
-1.02027e-06
-1.03638e-06
-1.11589e-06
-9.7802e-07
-9.72989e-07
-1.12399e-06
-1.23462e-06
-9.68452e-07
-1.16955e-06
-8.49547e-07
-7.60332e-07
-9.28042e-07
-1.20552e-06
-1.38202e-06
-5.45555e-07
-1.04521e-06
-2.1916e-06
-1.07242e-07
1.09613e-07
-8.34945e-07
-7.7482e-07
-1.20122e-06
-1.85388e-06
-1.10735e-06
-3.16301e-07
-2.89524e-06
-3.9656e-06
7.37282e-07
2.06413e-06
-1.02071e-06
-1.02085e-06
-1.02103e-06
-1.02376e-06
-1.02212e-06
-1.01533e-06
-1.01354e-06
-1.01366e-06
-1.01434e-06
-1.01671e-06
-1.02134e-06
-1.0289e-06
-1.03893e-06
-1.03956e-06
-1.023e-06
-1.00115e-06
-1.00033e-06
-1.01083e-06
-1.00893e-06
-1.00877e-06
-9.9805e-07
-9.8223e-07
-1.01209e-06
-1.13022e-06
-1.06502e-06
-9.4639e-07
-1.01629e-06
-1.24079e-06
-1.02895e-06
-1.03422e-06
-1.15282e-06
-7.29512e-07
-7.80506e-07
-1.51311e-06
-1.25999e-06
-1.92578e-09
-7.23565e-07
-3.15393e-06
-5.38636e-07
-1.24569e-07
-1.60933e-06
2.70901e-07
-1.06619e-06
-1.41412e-06
-1.4561e-06
-5.94591e-08
-1.76271e-06
-4.0576e-06
-6.04379e-07
8.29385e-07
-1.02052e-06
-1.01964e-06
-1.01953e-06
-1.02127e-06
-1.02273e-06
-1.01696e-06
-1.01545e-06
-1.01741e-06
-1.0165e-06
-1.01799e-06
-1.02168e-06
-1.02099e-06
-1.02377e-06
-1.02885e-06
-1.03496e-06
-1.01112e-06
-1.00609e-06
-1.00685e-06
-1.01312e-06
-1.02524e-06
-1.01266e-06
-1.04211e-06
-9.79615e-07
-9.88127e-07
-1.11251e-06
-9.82871e-07
-1.00775e-06
-1.10253e-06
-1.06923e-06
-1.00737e-06
-1.02677e-06
-1.02697e-06
-9.21734e-07
-1.18624e-06
-1.08537e-06
-6.43659e-07
-9.65499e-07
-1.85045e-06
1.37386e-08
-2.35956e-06
-2.04385e-06
2.43384e-07
-7.79509e-07
-9.21601e-07
-1.86109e-06
-4.15731e-08
-8.4393e-07
-3.767e-06
-7.1502e-07
-2.03419e-06
-1.01991e-06
-1.0184e-06
-1.01818e-06
-1.01886e-06
-1.02127e-06
-1.01892e-06
-1.01793e-06
-1.01985e-06
-1.0207e-06
-1.01831e-06
-1.02032e-06
-1.02016e-06
-1.01352e-06
-1.01642e-06
-1.03499e-06
-1.03056e-06
-1.00114e-06
-1.00263e-06
-1.03648e-06
-1.03242e-06
-1.00162e-06
-1.04175e-06
-1.03289e-06
-9.77402e-07
-1.03252e-06
-1.01403e-06
-1.00181e-06
-1.11928e-06
-9.26489e-07
-9.73859e-07
-1.15767e-06
-1.09954e-06
-1.18831e-06
-3.61791e-07
-8.01982e-07
-1.96705e-06
-5.63359e-07
-1.76126e-06
-1.71093e-07
-3.9027e-07
-2.07203e-06
-9.6408e-07
-1.29246e-06
-4.33189e-07
-2.08959e-06
-7.46242e-07
-5.42577e-07
-1.77237e-06
-2.81269e-07
-3.58582e-06
-1.01935e-06
-1.0176e-06
-1.01687e-06
-1.01762e-06
-1.01929e-06
-1.0196e-06
-1.02109e-06
-1.02324e-06
-1.02508e-06
-1.01875e-06
-1.01626e-06
-1.0148e-06
-1.01159e-06
-1.01902e-06
-1.02241e-06
-1.02118e-06
-1.00919e-06
-1.02033e-06
-1.06318e-06
-1.015e-06
-1.02008e-06
-1.04633e-06
-1.02046e-06
-9.86052e-07
-9.83392e-07
-1.01157e-06
-1.04172e-06
-1.06407e-06
-8.847e-07
-1.08066e-06
-1.06121e-06
-8.98892e-07
-1.19236e-06
-5.29924e-07
-1.14832e-06
-1.70089e-06
-3.47569e-07
-1.87414e-06
-1.5374e-06
1.65949e-06
-1.99008e-06
-1.8477e-06
-1.0549e-06
-1.25198e-06
-7.22501e-07
-6.90848e-07
-1.02493e-06
-9.13466e-07
-7.14321e-07
-3.74773e-06
-1.01887e-06
-1.01734e-06
-1.01577e-06
-1.01725e-06
-1.01811e-06
-1.01981e-06
-1.02294e-06
-1.03048e-06
-1.02859e-06
-1.01839e-06
-1.01075e-06
-1.00813e-06
-1.00923e-06
-1.01499e-06
-1.01553e-06
-1.01209e-06
-1.02253e-06
-1.06561e-06
-1.04952e-06
-1.01882e-06
-1.05669e-06
-1.02724e-06
-9.85635e-07
-9.55019e-07
-9.84752e-07
-1.11082e-06
-1.02504e-06
-8.27547e-07
-8.93926e-07
-1.12524e-06
-8.03572e-07
-1.0859e-06
-1.22583e-06
-1.35795e-06
-1.56744e-06
9.4899e-08
-4.69536e-07
-3.05771e-06
7.53352e-07
-4.83975e-07
-3.38447e-06
-1.13004e-06
2.79265e-07
-9.7498e-07
-8.25159e-07
-1.055e-06
-7.76414e-07
-9.57495e-07
-1.12664e-06
-2.84892e-06
-1.01892e-06
-1.01783e-06
-1.01616e-06
-1.01734e-06
-1.01821e-06
-1.01978e-06
-1.02345e-06
-1.03188e-06
-1.0259e-06
-1.01838e-06
-1.01104e-06
-1.00762e-06
-1.00878e-06
-1.01303e-06
-1.01593e-06
-1.01212e-06
-1.0218e-06
-1.06865e-06
-1.05478e-06
-1.0334e-06
-1.05408e-06
-1.01934e-06
-9.51698e-07
-9.64392e-07
-1.04859e-06
-1.02575e-06
-9.39727e-07
-8.40202e-07
-9.38177e-07
-1.1165e-06
-1.09758e-06
-1.32395e-06
-9.97246e-07
-1.16163e-06
-7.7156e-07
-1.12223e-07
-1.62339e-06
-2.9741e-06
1.27552e-06
-2.00955e-06
-2.79301e-06
9.68238e-07
1.35047e-06
-1.62966e-06
-1.69908e-06
-1.12668e-06
-5.34662e-07
-8.14676e-07
-1.30216e-06
-2.36331e-06
-1.01915e-06
-1.01824e-06
-1.01673e-06
-1.01873e-06
-1.01945e-06
-1.02021e-06
-1.02258e-06
-1.0302e-06
-1.02418e-06
-1.01866e-06
-1.01154e-06
-1.01006e-06
-1.01045e-06
-1.01155e-06
-1.01416e-06
-1.01417e-06
-1.02376e-06
-1.06346e-06
-1.07012e-06
-1.04452e-06
-1.03311e-06
-9.94238e-07
-9.64941e-07
-1.00974e-06
-1.04892e-06
-9.58637e-07
-8.89737e-07
-9.31953e-07
-1.18186e-06
-9.96636e-07
-9.87099e-07
-1.26139e-06
-8.68659e-07
-7.84794e-07
-5.58092e-07
-8.86029e-07
-3.21306e-06
-7.79047e-07
7.12248e-07
-2.3163e-06
-1.86777e-06
1.56862e-06
9.2654e-07
-2.32937e-06
-2.16635e-06
-9.25946e-07
-9.23533e-08
-5.544e-07
-2.32135e-06
-2.5741e-06
-1.0195e-06
-1.01902e-06
-1.01841e-06
-1.01855e-06
-1.01953e-06
-1.02058e-06
-1.0233e-06
-1.02807e-06
-1.02307e-06
-1.01708e-06
-1.01556e-06
-1.01393e-06
-1.01116e-06
-1.01205e-06
-1.0141e-06
-1.01842e-06
-1.02912e-06
-1.07002e-06
-1.0671e-06
-1.03345e-06
-1.0245e-06
-9.86311e-07
-9.86536e-07
-1.0366e-06
-9.75338e-07
-9.37055e-07
-9.43601e-07
-1.01435e-06
-1.11146e-06
-9.19748e-07
-9.70568e-07
-1.2188e-06
-8.88381e-07
-9.03745e-07
-8.42854e-07
-1.33353e-06
-3.0169e-06
6.50137e-07
1.80832e-07
-3.39619e-06
4.47966e-07
1.68201e-06
-6.12427e-07
-3.06806e-06
-2.18854e-06
-2.91551e-07
5.16025e-07
-1.42885e-06
-3.25619e-06
-2.60328e-06
-1.02035e-06
-1.02028e-06
-1.01933e-06
-1.01844e-06
-1.01904e-06
-1.02178e-06
-1.02419e-06
-1.02403e-06
-1.02254e-06
-1.02004e-06
-1.01249e-06
-1.01259e-06
-1.01587e-06
-1.01665e-06
-1.01698e-06
-1.01905e-06
-1.02587e-06
-1.05413e-06
-1.0501e-06
-1.02443e-06
-1.01714e-06
-9.90059e-07
-9.9177e-07
-1.02241e-06
-9.85219e-07
-9.46719e-07
-9.60914e-07
-1.03118e-06
-1.07125e-06
-9.25011e-07
-9.66593e-07
-1.17629e-06
-9.5273e-07
-1.13058e-06
-9.22005e-07
-1.35522e-06
-2.48414e-06
2.43766e-07
-2.02435e-07
-3.04557e-06
7.43812e-07
1.03289e-06
-1.48135e-06
-3.07833e-06
-1.63381e-06
4.93142e-07
-5.65153e-08
-2.17634e-06
-2.40621e-06
-8.46888e-08
-1.01949e-06
-1.01986e-06
-1.02116e-06
-1.02317e-06
-1.02309e-06
-1.02301e-06
-1.02299e-06
-1.02372e-06
-1.02284e-06
-1.02073e-06
-1.0174e-06
-1.01185e-06
-1.01038e-06
-1.01233e-06
-1.01892e-06
-1.02309e-06
-1.02745e-06
-1.04093e-06
-1.06034e-06
-1.04334e-06
-1.03434e-06
-1.00465e-06
-1.00332e-06
-1.00753e-06
-9.95804e-07
-9.73302e-07
-9.73189e-07
-1.01051e-06
-1.01913e-06
-9.59459e-07
-9.45374e-07
-1.04045e-06
-9.86337e-07
-1.294e-06
-9.34433e-07
-1.19093e-06
-2.1196e-06
-2.2476e-07
-8.56971e-07
-1.87268e-06
1.37327e-06
6.23267e-07
-2.26995e-06
-3.48772e-06
-7.03947e-07
1.95532e-06
-5.6345e-07
-3.05937e-06
-2.77205e-06
-2.18607e-07
-1.01388e-06
-1.02054e-06
-1.04563e-06
-1.05502e-06
-1.05494e-06
-1.04471e-06
-1.03519e-06
-1.02469e-06
-1.02494e-06
-1.02662e-06
-1.04006e-06
-1.05363e-06
-1.03966e-06
-1.02749e-06
-1.02971e-06
-1.02806e-06
-1.02593e-06
-1.03794e-06
-1.03876e-06
-1.01806e-06
-1.03846e-06
-1.02866e-06
-1.02804e-06
-1.03428e-06
-1.02923e-06
-1.02276e-06
-1.09375e-06
-1.23112e-06
-9.67991e-07
-8.28072e-07
-9.85014e-07
-3.043e-07
1.04511e-07
3.69074e-07
1.07882e-06
8.02356e-07
1.75498e-06
-5.0579e-07
-2.70487e-06
-1.61295e-06
-4.09084e-06
-4.96859e-06
-5.26961e-06
-1.85124e-05
-2.37268e-05
-1.79897e-05
1.58772e-05
4.39964e-05
2.17657e-05
-1.12297e-05
-1.03583e-06
-1.08078e-06
-1.07637e-06
-1.05218e-06
-1.03349e-06
-1.01977e-06
-1.01724e-06
-1.02444e-06
-1.03341e-06
-1.04072e-06
-1.05491e-06
-1.03547e-06
-1.01996e-06
-1.0281e-06
-1.02969e-06
-1.0255e-06
-1.04213e-06
-1.06055e-06
-1.02084e-06
-1.01916e-06
-1.04782e-06
-1.02026e-06
-1.03487e-06
-1.03846e-06
-1.02448e-06
-1.04246e-06
-1.18957e-06
-1.17101e-06
-7.76058e-07
-7.79487e-07
-7.10246e-07
2.51701e-08
1.13449e-07
5.66645e-07
1.14545e-06
7.37069e-07
1.20592e-06
-2.72665e-06
-6.00904e-06
-6.34326e-06
-8.55348e-06
-1.05385e-05
-1.94416e-05
-2.17469e-05
-1.82201e-05
-5.26028e-06
2.20233e-05
2.69759e-05
-1.15296e-05
-4.10451e-05
-1.0221e-06
-1.08676e-06
-1.06556e-06
-1.03337e-06
-1.02011e-06
-1.01391e-06
-1.01844e-06
-1.03025e-06
-1.03956e-06
-1.0495e-06
-1.05294e-06
-1.02299e-06
-1.01457e-06
-1.03051e-06
-1.03168e-06
-1.02682e-06
-1.0507e-06
-1.04135e-06
-1.01119e-06
-1.04081e-06
-1.03372e-06
-1.0155e-06
-1.04677e-06
-1.04029e-06
-1.01106e-06
-1.03119e-06
-1.0773e-06
-8.76533e-07
-7.86773e-07
-7.57875e-07
-4.80033e-07
-5.3283e-07
-3.65979e-07
8.04033e-08
-1.8572e-08
-3.89329e-07
-1.17284e-06
-2.18211e-06
-4.64334e-06
-8.07527e-06
-7.31317e-06
-7.46974e-06
-9.50019e-06
-8.20806e-06
-6.0081e-06
1.13937e-06
-1.72701e-06
6.21652e-07
5.40228e-06
-5.71172e-06
-1.04734e-06
-1.03175e-06
-1.0196e-06
-1.01544e-06
-1.017e-06
-1.02061e-06
-1.03548e-06
-1.04907e-06
-1.05034e-06
-1.04513e-06
-1.02192e-06
-1.01486e-06
-1.01858e-06
-1.03599e-06
-1.0348e-06
-1.03248e-06
-1.03458e-06
-1.01044e-06
-1.01739e-06
-1.05114e-06
-1.02106e-06
-1.01573e-06
-1.0423e-06
-1.03919e-06
-1.00835e-06
-1.03222e-06
-9.77092e-07
-7.25732e-07
-8.82808e-07
-8.30055e-07
-4.10685e-07
-7.68009e-07
-4.04422e-07
6.39864e-08
-4.92208e-07
-7.75386e-07
-3.07464e-06
-2.33353e-06
-4.36102e-06
-7.41461e-06
-6.8712e-06
-6.12544e-06
-6.15347e-06
-5.35452e-06
-6.9377e-06
-5.58254e-06
-1.73898e-07
1.02367e-05
6.26896e-06
7.53509e-06
-1.0404e-06
-1.00641e-06
-1.00689e-06
-1.01517e-06
-1.02349e-06
-1.03826e-06
-1.0565e-06
-1.0514e-06
-1.03453e-06
-1.02483e-06
-1.01105e-06
-1.01662e-06
-1.03328e-06
-1.03017e-06
-1.02407e-06
-1.04047e-06
-1.02118e-06
-9.98495e-07
-1.03672e-06
-1.03567e-06
-1.00863e-06
-1.02538e-06
-1.01413e-06
-1.00411e-06
-1.03196e-06
-1.07429e-06
-8.50931e-07
-7.02166e-07
-1.0974e-06
-9.11902e-07
-3.53458e-07
-9.11431e-07
-7.12615e-07
-4.38904e-07
-2.12091e-06
-2.04189e-06
-2.71544e-06
-3.7448e-06
-3.61101e-06
-2.73722e-06
-4.81678e-06
-5.87062e-06
-2.7426e-06
-3.14336e-06
-3.38305e-06
3.06045e-07
1.4797e-08
-3.65364e-06
-3.88148e-06
-1.77527e-06
-1.05242e-06
-1.00685e-06
-1.01327e-06
-1.03159e-06
-1.04135e-06
-1.05416e-06
-1.04434e-06
-1.02106e-06
-1.01961e-06
-1.01799e-06
-1.01498e-06
-1.03407e-06
-1.05269e-06
-1.02353e-06
-1.01848e-06
-1.0342e-06
-1.02013e-06
-1.01568e-06
-1.03634e-06
-1.00645e-06
-1.01079e-06
-1.03606e-06
-1.00553e-06
-9.74092e-07
-1.0189e-06
-1.02611e-06
-8.26787e-07
-7.52479e-07
-8.92634e-07
-1.12395e-06
-6.28666e-07
-8.99084e-07
-1.53644e-06
-9.46863e-07
-1.34738e-06
-7.97759e-07
-4.03171e-07
-5.65456e-06
-3.61625e-06
-9.64495e-07
-3.34464e-06
-6.00531e-06
-2.68196e-06
-2.63223e-06
-4.05996e-06
-4.30078e-06
-3.27687e-06
1.13496e-06
1.86283e-06
1.52643e-06
-1.03553e-06
-1.03016e-06
-1.03503e-06
-1.04301e-06
-1.04372e-06
-1.03603e-06
-1.01383e-06
-1.01077e-06
-1.01739e-06
-1.02297e-06
-1.03051e-06
-1.04273e-06
-1.03577e-06
-1.02273e-06
-1.02061e-06
-1.02224e-06
-1.02819e-06
-1.04771e-06
-1.01454e-06
-1.00445e-06
-1.02655e-06
-1.02943e-06
-1.01539e-06
-9.70488e-07
-9.43444e-07
-8.81536e-07
-9.72441e-07
-1.0484e-06
-7.8551e-07
-8.46871e-07
-1.18152e-06
-7.46085e-07
-1.18572e-06
-8.8632e-07
-1.52158e-06
-3.04035e-06
-2.12902e-06
-4.08833e-06
-3.71391e-06
-3.33575e-06
-3.55554e-06
-1.45383e-06
-3.31686e-06
-1.2862e-06
-2.18165e-06
-1.28225e-06
2.08889e-06
-7.30569e-07
-4.49693e-06
1.13228e-06
-1.0269e-06
-1.05524e-06
-1.05628e-06
-1.04259e-06
-1.03561e-06
-1.01763e-06
-1.00824e-06
-1.01909e-06
-1.0279e-06
-1.03223e-06
-1.04146e-06
-1.03158e-06
-1.01074e-06
-1.02131e-06
-1.03785e-06
-1.02359e-06
-1.01762e-06
-1.01423e-06
-1.01385e-06
-1.04094e-06
-1.02517e-06
-9.96248e-07
-1.01038e-06
-1.02616e-06
-9.55761e-07
-8.70799e-07
-1.04715e-06
-1.39199e-06
-9.60332e-07
-7.37109e-07
-1.29662e-06
-1.21287e-06
-1.46724e-06
-1.63585e-06
-1.11376e-06
-2.22743e-06
-1.69434e-06
-4.8451e-07
-2.21649e-07
-5.92525e-06
-4.00503e-06
4.64734e-07
-2.66931e-06
-8.62209e-07
-1.61102e-06
-2.32623e-06
-2.82708e-06
-6.05684e-06
-2.03283e-07
-2.49056e-06
-1.04024e-06
-1.03747e-06
-1.03253e-06
-1.02052e-06
-1.01677e-06
-1.01435e-06
-1.02522e-06
-1.03907e-06
-1.03742e-06
-1.02461e-06
-1.02738e-06
-1.01717e-06
-1.00651e-06
-1.02039e-06
-1.0414e-06
-1.02315e-06
-1.00672e-06
-1.0056e-06
-1.0385e-06
-1.03212e-06
-1.01201e-06
-9.99778e-07
-9.97508e-07
-1.05333e-06
-1.1152e-06
-1.02838e-06
-9.28476e-07
-1.04534e-06
-1.40321e-06
-1.11524e-06
-1.38878e-06
-1.43131e-06
-7.89781e-07
-9.95256e-07
-7.38943e-07
-1.08873e-06
-1.43535e-06
-2.09283e-06
-2.69606e-06
-1.98776e-06
-5.71813e-06
-2.48635e-07
-1.31676e-06
-1.66697e-06
-1.71863e-06
-1.96561e-06
-1.74428e-08
1.05847e-06
2.28632e-07
-3.10628e-06
-1.03599e-06
-1.01254e-06
-1.00854e-06
-1.01693e-06
-1.01601e-06
-1.02655e-06
-1.04523e-06
-1.04186e-06
-1.02612e-06
-1.02436e-06
-1.01999e-06
-1.01472e-06
-1.02095e-06
-1.03316e-06
-1.01673e-06
-1.00986e-06
-1.0166e-06
-1.03891e-06
-1.03315e-06
-1.00104e-06
-1.01222e-06
-1.03843e-06
-1.02134e-06
-1.00299e-06
-1.06477e-06
-1.21992e-06
-1.0492e-06
-9.46174e-07
-1.06316e-06
-1.09874e-06
-1.16963e-06
-1.0592e-06
-6.48775e-07
-1.12244e-06
-2.00002e-06
-2.00048e-06
-5.85233e-07
-2.69028e-06
-5.13724e-06
-2.26486e-07
-7.44515e-07
-6.66014e-07
-9.12231e-07
-3.4099e-06
-2.41534e-06
-2.09042e-06
-4.29052e-08
-8.66794e-08
-5.02563e-06
1.57945e-06
-1.02803e-06
-1.01776e-06
-1.01694e-06
-1.02211e-06
-1.02217e-06
-1.02992e-06
-1.02759e-06
-1.01238e-06
-1.01755e-06
-1.03425e-06
-1.02265e-06
-1.01768e-06
-1.03516e-06
-1.03382e-06
-1.00867e-06
-1.00971e-06
-1.03127e-06
-1.03481e-06
-1.01089e-06
-1.01951e-06
-1.03277e-06
-1.03167e-06
-1.04566e-06
-1.04299e-06
-9.78141e-07
-1.01216e-06
-1.20048e-06
-1.04295e-06
-9.40603e-07
-9.94347e-07
-9.52288e-07
-1.13225e-06
-8.69901e-07
-1.56143e-06
-1.70922e-06
-1.15343e-06
-6.18771e-07
-6.24759e-07
-3.94121e-06
-3.26657e-06
-1.13708e-06
9.03328e-07
-1.31579e-06
-5.00661e-06
-5.36256e-06
-1.47112e-06
-7.83566e-07
3.68938e-07
-1.15634e-06
3.37944e-06
-1.02213e-06
-1.03023e-06
-1.03382e-06
-1.02897e-06
-1.03401e-06
-1.03057e-06
-1.01071e-06
-1.01074e-06
-1.01987e-06
-1.01616e-06
-1.01875e-06
-1.03234e-06
-1.0351e-06
-1.01425e-06
-1.01458e-06
-1.03064e-06
-1.0342e-06
-1.01306e-06
-1.01252e-06
-1.02394e-06
-1.02136e-06
-1.01304e-06
-1.01902e-06
-1.01279e-06
-9.80516e-07
-9.55178e-07
-9.81257e-07
-1.00079e-06
-1.01313e-06
-1.18901e-06
-9.37769e-07
-8.87265e-07
-1.1512e-06
-1.5697e-06
-1.0001e-06
-5.22329e-07
-1.80754e-06
-1.34237e-06
-2.32779e-06
-2.1205e-06
-1.7162e-06
-2.45625e-06
-3.61871e-06
-3.1278e-06
-2.3018e-06
-4.75343e-07
-1.03849e-06
-1.61375e-09
-2.40752e-06
-1.87929e-06
-1.02942e-06
-1.02465e-06
-1.02748e-06
-1.02641e-06
-1.02671e-06
-1.01862e-06
-1.01872e-06
-1.02677e-06
-1.02069e-06
-1.011e-06
-1.01885e-06
-1.02756e-06
-1.01601e-06
-1.01191e-06
-1.02654e-06
-1.03791e-06
-1.02356e-06
-1.01717e-06
-1.02313e-06
-1.0183e-06
-1.01119e-06
-1.01453e-06
-9.98747e-07
-9.84247e-07
-1.01632e-06
-9.69758e-07
-9.46651e-07
-9.52656e-07
-9.39976e-07
-9.63914e-07
-9.198e-07
-1.13978e-06
-1.40657e-06
-9.71572e-07
-6.98151e-07
-3.30907e-07
-2.78657e-06
-2.82e-06
-9.19711e-07
-6.59113e-07
3.23695e-07
-2.97038e-06
-2.32734e-06
-1.98201e-06
-1.07562e-06
-1.45136e-06
-1.92144e-06
-1.78137e-06
-2.36039e-06
-3.09639e-06
-1.02642e-06
-1.01965e-06
-1.01779e-06
-1.01964e-06
-1.01593e-06
-1.01602e-06
-1.02836e-06
-1.02892e-06
-1.02644e-06
-1.02466e-06
-1.02574e-06
-1.01812e-06
-1.0144e-06
-1.02456e-06
-1.03147e-06
-1.02003e-06
-1.02166e-06
-1.0295e-06
-1.02878e-06
-1.03147e-06
-1.03457e-06
-1.02692e-06
-1.02229e-06
-1.00642e-06
-1.01124e-06
-1.01566e-06
-9.80441e-07
-1.00707e-06
-9.33579e-07
-9.3075e-07
-9.49962e-07
-9.11426e-07
-9.46865e-07
-7.98675e-07
-1.22301e-06
-1.50144e-06
-1.00585e-06
-1.53787e-06
-5.38894e-07
-2.75681e-07
-8.62694e-07
-3.12205e-06
-2.40428e-06
-1.77708e-06
-2.47646e-06
-4.09238e-06
-2.08416e-06
-3.06419e-06
-2.22993e-06
-3.76611e-06
-1.02184e-06
-1.02211e-06
-1.02082e-06
-1.02004e-06
-1.01986e-06
-1.02302e-06
-1.0227e-06
-1.02025e-06
-1.02202e-06
-1.02727e-06
-1.02317e-06
-1.01871e-06
-1.02137e-06
-1.02377e-06
-1.01691e-06
-1.01282e-06
-1.01507e-06
-1.0216e-06
-1.02613e-06
-1.02707e-06
-1.03595e-06
-1.04523e-06
-1.06363e-06
-1.08806e-06
-1.04532e-06
-1.03052e-06
-9.88772e-07
-1.02916e-06
-1.0507e-06
-1.01e-06
-1.08724e-06
-8.97091e-07
-8.13752e-07
-9.05614e-07
-1.14723e-06
-1.41254e-06
-5.72612e-07
-8.05088e-07
-2.28252e-06
-1.78015e-06
-1.63172e-06
-5.39431e-07
-2.18226e-06
-1.62203e-06
7.23849e-07
-2.67957e-06
-9.7232e-07
-1.16652e-06
-1.14482e-06
-5.80554e-06
-4.31601e-05
1.5625e-05
5.99589e-05
3.16732e-05
-1.6583e-05
-3.28203e-05
-2.45368e-05
-5.41403e-06
-3.29088e-06
-2.22436e-06
2.18274e-06
3.03445e-06
9.99047e-07
-2.63802e-06
-3.2809e-07
1.75737e-06
5.50855e-07
9.32709e-07
1.1236e-06
-3.55637e-08
-7.80063e-07
-8.88696e-07
-1.13629e-06
-1.18305e-06
-1.10164e-06
-1.05487e-06
-1.04445e-06
-1.03204e-06
-1.02497e-06
-1.04109e-06
-1.02048e-06
-1.03094e-06
-1.03687e-06
-1.0306e-06
-1.03011e-06
-1.02965e-06
-1.02805e-06
-1.02654e-06
-1.05063e-06
-1.04774e-06
-1.03485e-06
-1.02706e-06
-1.02658e-06
-1.02681e-06
-1.03308e-06
-1.0525e-06
-1.08617e-06
-1.07089e-06
-1.05625e-06
-1.03376e-06
-1.96019e-05
8.4116e-05
0.00010858
4.81995e-05
-1.60577e-05
-3.58757e-05
-2.79077e-05
-1.72094e-05
-9.74896e-06
6.57768e-06
7.72451e-06
-2.25354e-06
-7.62818e-06
-8.32605e-06
-1.85427e-06
1.0104e-05
6.04495e-06
3.75876e-06
1.54396e-06
-6.76811e-07
-1.24794e-06
-1.27391e-06
-1.2304e-06
-1.15065e-06
-1.1044e-06
-1.1044e-06
-1.1515e-06
-1.15796e-06
-1.08418e-06
-1.06778e-06
-1.04944e-06
-1.03372e-06
-1.03654e-06
-1.03377e-06
-1.03147e-06
-1.02952e-06
-1.0287e-06
-1.02818e-06
-1.02842e-06
-1.04288e-06
-1.04855e-06
-1.03625e-06
-1.03278e-06
-1.02505e-06
-1.02136e-06
-1.02583e-06
-1.0382e-06
-1.07e-06
-1.07767e-06
-1.07406e-06
6.67578e-05
0.000140496
0.000147653
6.53503e-05
-1.59146e-05
-3.54808e-05
-2.90684e-05
-8.84826e-06
1.598e-05
1.42512e-05
-5.75822e-06
-1.47881e-05
-7.40589e-06
1.27202e-05
1.15197e-05
6.18753e-06
3.39898e-06
6.24834e-06
6.46886e-06
2.65157e-06
2.27275e-07
-8.30926e-07
-1.03264e-06
-1.17932e-06
-1.51731e-06
-1.48743e-06
-1.24526e-06
-1.03062e-06
-9.3642e-07
-9.76528e-07
-1.01809e-06
-1.02587e-06
-1.02991e-06
-1.03219e-06
-1.03264e-06
-1.03094e-06
-1.02963e-06
-1.02945e-06
-1.02936e-06
-1.03186e-06
-1.0406e-06
-1.03449e-06
-1.03715e-06
-1.04008e-06
-1.03114e-06
-1.0238e-06
-1.02651e-06
-1.04248e-06
-1.0547e-06
-1.07215e-06
-0.000158841
8.15351e-05
0.000171901
9.74597e-05
1.13768e-05
-1.96134e-05
-1.95926e-05
-8.96092e-07
1.96628e-05
-6.13017e-07
-1.28427e-05
2.32096e-06
1.89947e-05
8.30287e-06
-5.06623e-06
-7.20852e-06
1.39692e-06
2.50514e-05
1.15273e-05
4.46053e-06
1.41455e-06
1.01651e-07
-4.55385e-07
-1.06604e-06
-1.46643e-06
-1.51499e-06
-1.34784e-06
-1.17071e-06
-1.06805e-06
-1.04727e-06
-1.03416e-06
-1.01505e-06
-1.01199e-06
-1.02133e-06
-1.03012e-06
-1.03207e-06
-1.03148e-06
-1.03035e-06
-1.03014e-06
-1.0298e-06
-1.03327e-06
-1.03566e-06
-1.03687e-06
-1.04121e-06
-1.04658e-06
-1.03817e-06
-1.03541e-06
-1.03333e-06
-1.03822e-06
-1.04917e-06
-0.0122821
-0.00529449
-0.000911367
0.000452051
0.00037595
0.000156886
4.89399e-05
3.27421e-05
1.46295e-05
-1.6287e-05
1.03639e-05
1.63189e-05
6.29796e-07
-1.54275e-05
-1.45565e-05
-4.24525e-06
-8.27163e-07
3.5081e-06
8.92201e-06
1.52971e-05
1.23626e-05
8.72729e-06
3.53226e-06
-2.508e-07
-1.43515e-06
-1.66473e-06
-1.66907e-06
-1.61989e-06
-1.52594e-06
-1.34697e-06
-1.16127e-06
-1.0541e-06
-9.89553e-07
-9.74213e-07
-9.99166e-07
-1.01729e-06
-1.02758e-06
-1.03168e-06
-1.0326e-06
-1.03163e-06
-1.03182e-06
-1.03443e-06
-1.03586e-06
-1.04049e-06
-1.04426e-06
-1.04562e-06
-1.04111e-06
-1.03606e-06
-1.03572e-06
-1.03574e-06
-0.190198
-0.116321
-0.026963
0.0235478
0.019393
0.00880653
0.00289204
0.000821209
0.000194114
5.40594e-05
1.98182e-05
-1.51733e-05
-1.95917e-05
-1.20575e-05
-1.13482e-05
-7.17309e-06
1.38413e-06
9.15364e-06
8.93614e-06
1.29341e-05
1.27737e-05
9.9879e-06
9.75497e-06
5.06795e-06
7.80692e-07
-1.42334e-06
-3.04494e-06
-3.89025e-06
-3.58907e-06
-2.76923e-06
-1.96554e-06
-1.26461e-06
-8.92796e-07
-8.57124e-07
-9.05913e-07
-9.36278e-07
-9.77172e-07
-1.0114e-06
-1.03648e-06
-1.04955e-06
-1.04744e-06
-1.0426e-06
-1.03739e-06
-1.04144e-06
-1.04287e-06
-1.04317e-06
-1.04082e-06
-1.03722e-06
-1.03581e-06
-1.03472e-06
-0.52029
-0.410974
-0.303837
0.0820751
0.371143
0.170541
0.0672792
0.0204756
0.00532545
0.00126304
0.000268469
4.34812e-05
-1.65247e-05
-1.17829e-05
-3.83313e-06
-6.12073e-06
-1.93505e-05
-3.37277e-05
-5.73685e-05
-9.72257e-05
-0.000133383
-0.00014198
-5.83207e-05
2.7726e-06
2.32799e-05
1.6325e-05
2.30056e-06
-5.35229e-06
-1.01882e-05
-9.78098e-06
-5.49099e-06
-2.31604e-06
-1.54665e-06
-1.1433e-06
-5.59743e-07
-3.68051e-07
-5.33667e-07
-7.76276e-07
-9.74336e-07
-1.08142e-06
-1.12344e-06
-1.12565e-06
-1.08194e-06
-1.04703e-06
-1.03178e-06
-1.02805e-06
-1.03275e-06
-1.03548e-06
-1.03674e-06
-1.03688e-06
0.174658
-0.0406903
-0.373023
-0.504839
-0.127782
0.683814
0.434071
0.177989
0.0586453
0.0154837
0.00359876
0.000760488
0.000146409
1.26058e-05
-2.04203e-05
-5.02405e-05
-0.000174169
-0.000605536
-0.001797
-0.00451015
-0.00905013
-0.00727025
-0.0043493
0.00030098
0.00127596
0.00123276
0.000753108
0.00035937
0.000132529
3.85595e-05
4.13166e-06
-1.04072e-05
-1.96682e-05
-2.84503e-05
-2.72093e-05
-1.45245e-05
-1.88118e-06
3.28042e-06
3.19905e-06
1.45174e-06
-1.01375e-07
-1.04551e-06
-1.57339e-06
-1.5788e-06
-1.26893e-06
-1.03266e-06
-9.43909e-07
-9.49403e-07
-1.00901e-06
-1.04979e-06
0.129791
0.00105675
-0.0975471
-0.42686
-1.17619
-0.141177
0.30531
0.739601
0.260538
0.0848308
0.0228541
0.00536473
0.0011408
0.000161257
-6.5471e-05
-0.000458237
-0.00225923
-0.00847227
-0.0250548
-0.0476598
-0.0416143
-0.0279978
-0.0150923
-0.009514
0.0058407
0.0265258
0.0148085
0.00807718
0.00366668
0.00139528
0.00029887
-0.000116526
-0.000549656
-0.00161478
-0.00193911
-0.00107152
1.84415e-05
0.000314688
0.000342149
0.000229401
0.000101852
1.4291e-05
-2.46272e-05
-3.61339e-05
-4.02061e-05
-1.5834e-05
3.76806e-06
8.68694e-06
4.9215e-06
1.13504e-06
0.0649882
0.00106042
-0.0347754
-0.170107
-0.742185
-0.775121
-0.0464291
0.374708
0.636747
0.26832
0.0875077
0.02322
0.00530545
0.000688518
-0.000440691
-0.0049535
-0.0217166
-0.0545473
-0.0469045
-0.0172244
-0.000162696
0.00563636
0.00181371
-0.0333417
-0.0130071
-0.00375347
0.0137265
0.0402222
0.0253005
0.0119085
0.00246275
-0.000933055
-0.0075759
-0.0219084
-0.0136022
-0.0064119
-0.0026309
0.00711379
0.00645336
0.00398554
0.00158908
-6.03639e-05
-0.000692252
-0.001139
-0.00149942
-0.000813858
0.000633084
0.000546754
0.000238578
5.77624e-05
0.0775525
0.0154936
-0.0156817
-0.1232
-0.362141
-0.866094
-0.196789
0.0943368
0.530425
0.375231
0.190199
0.0745205
0.0195581
0.00207647
-0.00471503
-0.0346301
-0.100311
-0.0760689
-0.0167299
0.0209835
0.0615941
0.0239217
0.00439197
-0.0377093
-0.0574638
-0.0136125
-0.00548487
0.00608156
0.0484717
0.047194
0.00948521
-0.00703966
-0.0513257
-0.0220131
-0.00340499
-0.00112302
0.00069339
0.0062041
0.0214391
0.0173948
0.00339808
-0.00268039
-0.0105582
-0.0115362
-0.00504123
-0.00288243
0.00443822
0.00871411
0.00230237
-0.000308508
0.086473
0.0287626
-0.00843349
-0.103116
-0.284451
-0.519081
-0.286392
0.0349778
0.428286
0.320897
0.179986
0.0853438
0.030637
0.0017812
-0.0243116
-0.138988
-0.16457
-0.0407928
0.0160181
0.130002
0.0791948
0.021792
-0.00234943
-0.0903871
-0.0685705
-0.011457
0.00487594
0.0464998
0.0528351
0.0157752
-0.0103002
-0.0619447
-0.00615546
0.0205443
0.0160464
-0.000978058
-0.00394587
0.00110278
0.0162174
0.0021975
-0.00848919
-0.0237423
-0.00423087
0.00131933
0.0106673
0.0102508
0.00508261
-0.00069661
-0.00500842
-0.00736782
0.0946736
0.0361241
-0.000220042
-0.0699976
-0.251791
-0.303749
-0.244685
0.0164703
0.27965
0.283365
0.157381
0.075084
0.017667
-0.00303119
-0.0787282
-0.235587
-0.122349
-0.0194692
0.0304317
0.140584
0.109231
0.0385251
-0.00292923
-0.0910065
-0.089318
-0.0119443
0.0283436
0.0709979
0.0245082
-0.00358015
-0.054524
-0.0230455
0.00811292
0.0411612
0.00593381
-0.0125621
-0.0225774
0.00288619
0.0193464
0.000224464
-0.0107218
-0.00285537
0.00819271
0.000409166
-0.00325235
-0.00153391
0.00310539
-0.000392418
-0.000922614
0.000538414
0.0929631
0.032111
0.00437714
-0.019377
-0.222059
-0.220267
-0.151992
-0.0100144
0.156454
0.18053
0.111384
0.0536953
0.0107107
-0.0068171
-0.0804391
-0.236614
-0.136431
-0.0259589
0.00588207
0.0874016
0.13896
0.0893415
0.0250793
-0.00824161
-0.117782
-0.0603295
0.00581963
0.0603212
0.0252051
-0.000155214
-0.0338063
-0.0116136
0.000157284
0.0276461
0.0133293
-0.00292562
-0.0349686
-0.0106801
0.00471497
0.0144101
0.00336112
0.00526112
0.0104253
0.00122227
-0.00432555
-0.0150941
-0.00521593
-0.00163464
0.00767864
0.00792398
0.0608699
0.0122505
0.00247657
-0.00427256
-0.0654026
-0.259938
-0.119959
-0.0134248
0.0948956
0.0980712
0.0785745
0.0412135
0.00899441
-0.00262943
-0.0501917
-0.221825
-0.142781
-0.0379719
-0.0168292
0.040828
0.146584
0.105402
0.0445518
0.00479933
-0.0127395
-0.0713651
-0.0436226
-0.00181976
0.0108939
0.00364456
-0.00462416
-0.000793896
0.00311635
0.0102839
0.0284537
0.0138999
-0.0014812
-0.0142748
-0.0260333
-0.00927901
-0.00405571
-0.00102112
0.0100068
0.0161511
0.00451079
-0.00107714
-0.00315278
-0.00589095
-0.00327182
-0.00148545
0.0279021
0.00400058
0.000746396
-0.00101084
-0.0101637
-0.0880299
-0.220449
-0.0868149
-0.00569527
0.0948128
0.0814085
0.0444259
0.0138134
-0.000642055
-0.0334781
-0.209478
-0.107986
-0.0229453
0.0237877
0.136488
0.082165
0.0334182
0.0101981
0.00141912
-0.00143154
-0.010951
-0.0331488
-0.0320764
-0.0198977
-0.00788753
-0.00370898
0.00311061
0.0189665
0.0149259
0.00960186
0.00431696
0.000338246
-0.00118162
-0.00460593
-0.00604993
-0.00306266
-0.000826638
0.00242799
0.00179839
0.000898137
0.000106306
-0.000238898
-0.000356036
-0.000346422
-5.27681e-05
0.00859111
0.00154573
0.000406628
-0.000113316
-0.0010586
-0.00949249
-0.049199
-0.148477
-0.129458
-0.06993
-0.0219388
0.0277621
0.0152151
-0.00217996
-0.0999411
-0.0492949
-0.0127632
0.0645671
0.0858565
0.0435436
0.0178145
0.00597005
0.00167847
0.000249246
-0.000132265
-0.00122807
-0.00558243
-0.0136044
-0.0096693
-0.0059694
-0.00230369
0.00316512
0.00273493
0.0018548
0.00101153
0.000406989
4.03872e-05
-9.28719e-05
-0.000177275
-0.000221048
-0.00019428
-4.05031e-05
4.03299e-05
5.09039e-05
3.1811e-05
9.68357e-06
-4.49071e-06
-9.08359e-06
-8.27229e-06
-2.24189e-06
0.00204897
0.000246618