/*--------------------------------*- C++ -*----------------------------------*\
| =========                 |                                                 |
| \\      /  F ield         | OpenFOAM: The Open Source CFD Toolbox           |
|  \\    /   O peration     | Version:  2.3.1                                 |
|   \\  /    A nd           | Web:      www.OpenFOAM.org                      |
|    \\/     M anipulation  |                                                 |
\*---------------------------------------------------------------------------*/
FoamFile
{
    version     2.0;
    format      ascii;
    class       volScalarField;
    location    "1000";
    object      ddt0(omega);
}
// * * * * * * * * * * * * * * * * * * * * * * * * * * * * * * * * * * * * * //

dimensions      [0 0 -2 0 0 0 0];

internalField   nonuniform List<scalar> 
19300
(
-2.06647e-05
-2.04555e-05
-2.04262e-05
-2.02019e-05
-2.02798e-05
-2.0294e-05
-2.01524e-05
-2.02222e-05
-2.03174e-05
-2.02904e-05
-2.01191e-05
-1.9617e-05
-1.96993e-05
-1.99975e-05
-1.99998e-05
-2.01971e-05
-2.0312e-05
-2.04451e-05
-2.04404e-05
-2.01519e-05
-2.07293e-05
-1.99531e-05
-1.90665e-05
-2.03499e-05
-2.00282e-05
-2.08311e-05
-2.04465e-05
-2.00559e-05
-2.16696e-05
-2.05157e-05
-1.90008e-05
-2.0042e-05
-1.91672e-05
-1.86175e-05
-2.02276e-05
-2.09637e-05
-1.79813e-05
-1.84037e-05
-1.96403e-05
-2.04379e-05
-1.97188e-05
-1.94242e-05
-1.93037e-05
-2.00271e-05
-2.141e-05
-1.77623e-05
-1.91215e-05
-2.02304e-05
-1.92465e-05
-1.8016e-05
-1.75812e-05
-1.92736e-05
-1.92899e-05
-2.15076e-05
-2.07606e-05
-2.20745e-05
-2.2237e-05
-2.36171e-05
-2.3926e-05
-2.31302e-05
-2.21172e-05
-2.06121e-05
-1.97214e-05
-1.8512e-05
-1.79283e-05
-1.79884e-05
-1.81058e-05
-1.81268e-05
-1.80409e-05
-1.88357e-05
-1.43465e-05
-1.47365e-05
-1.77944e-05
-1.50332e-05
-1.24778e-05
-1.88184e-05
-1.37343e-05
-1.37341e-05
-1.8384e-05
-4.92227e-06
-3.7001e-05
-2.07964e-06
-1.66683e-05
-3.25481e-05
8.41091e-07
-4.58107e-05
-6.84903e-06
-1.50424e-05
-3.47059e-05
-2.57701e-05
-3.16767e-05
7.99134e-05
-0.000148157
1.62373e-05
4.50391e-05
-0.000284653
0.000241928
-0.000112236
-0.000337597
0.000507745
-2.07341e-05
-2.01518e-05
-2.04069e-05
-2.04212e-05
-2.0178e-05
-2.0176e-05
-2.03381e-05
-2.03028e-05
-2.01636e-05
-2.03453e-05
-1.97798e-05
-2.02176e-05
-2.01261e-05
-2.04629e-05
-2.00168e-05
-2.0308e-05
-2.06002e-05
-2.02286e-05
-2.04835e-05
-1.99638e-05
-2.03532e-05
-2.01751e-05
-1.95163e-05
-2.02436e-05
-2.05165e-05
-1.96911e-05
-2.01031e-05
-1.96914e-05
-2.00595e-05
-1.96743e-05
-1.99266e-05
-2.00697e-05
-1.92779e-05
-1.85636e-05
-2.00813e-05
-2.04914e-05
-1.84024e-05
-1.9435e-05
-1.93928e-05
-1.93474e-05
-1.90526e-05
-1.99399e-05
-1.91715e-05
-1.91351e-05
-1.99295e-05
-1.79685e-05
-2.0296e-05
-2.06689e-05
-2.07322e-05
-2.07656e-05
-2.02507e-05
-2.14676e-05
-2.11845e-05
-2.36996e-05
-2.3506e-05
-2.26461e-05
-2.26556e-05
-2.26449e-05
-2.18313e-05
-1.99006e-05
-1.95583e-05
-1.90672e-05
-1.91144e-05
-1.77565e-05
-1.74952e-05
-1.75617e-05
-1.72638e-05
-1.59396e-05
-1.54403e-05
-1.82091e-05
-1.22408e-05
-1.25786e-05
-1.7489e-05
-1.76156e-05
-1.28704e-05
-1.31746e-05
-1.59472e-05
-1.43493e-05
-2.63016e-05
8.84493e-06
-2.34406e-05
-6.51785e-06
-2.24437e-05
-3.03205e-05
1.29595e-06
-3.72652e-05
-1.12976e-05
-1.77655e-05
-2.93823e-05
-4.32158e-06
-8.54486e-05
5.04864e-05
2.03987e-05
-0.000140061
6.20595e-05
-0.000249791
9.35798e-05
-2.93301e-05
-0.000418745
0.000657479
-2.07996e-05
-2.06701e-05
-2.06e-05
-2.05693e-05
-2.02029e-05
-2.01254e-05
-2.0312e-05
-2.03427e-05
-2.03439e-05
-2.08773e-05
-1.91841e-05
-1.96889e-05
-2.00436e-05
-2.04063e-05
-2.0109e-05
-2.02081e-05
-2.07514e-05
-2e-05
-2.04249e-05
-2.06186e-05
-1.99828e-05
-2.01126e-05
-1.99283e-05
-1.97376e-05
-2.03611e-05
-2.05288e-05
-2.1008e-05
-1.98613e-05
-2.1132e-05
-2.04959e-05
-1.91049e-05
-1.93343e-05
-1.91732e-05
-1.84207e-05
-1.89165e-05
-2.09617e-05
-1.79677e-05
-1.87934e-05
-1.90998e-05
-1.95033e-05
-1.94541e-05
-2.00764e-05
-1.97825e-05
-1.85177e-05
-2.04693e-05
-1.84604e-05
-1.96039e-05
-2.01023e-05
-1.94058e-05
-2.11926e-05
-1.87098e-05
-2.06325e-05
-2.07712e-05
-2.24607e-05
-2.27089e-05
-2.30676e-05
-2.34284e-05
-2.36156e-05
-2.33227e-05
-2.12701e-05
-2.0782e-05
-2.06238e-05
-2.08933e-05
-1.8653e-05
-1.6772e-05
-1.7806e-05
-1.80028e-05
-1.58653e-05
-1.59715e-05
-2.0376e-05
-1.28725e-05
-1.23167e-05
-1.78702e-05
-1.78913e-05
-1.12652e-05
-1.19442e-05
-1.84149e-05
-9.8231e-06
-3.1911e-05
1.21435e-05
-2.67657e-06
-2.17016e-05
-2.21233e-05
-3.19892e-05
1.73943e-06
-3.3005e-05
-1.91731e-05
-1.62797e-05
-3.41861e-05
1.15551e-05
-0.000101035
2.29895e-05
4.24133e-05
-0.00014847
0.00012249
-0.000186793
-4.79132e-05
0.000195895
-0.000548511
0.000631844
-2.08558e-05
-2.07162e-05
-2.06727e-05
-2.06298e-05
-2.00943e-05
-2.04264e-05
-2.04597e-05
-2.02969e-05
-2.01294e-05
-2.11049e-05
-1.97513e-05
-1.97276e-05
-1.99868e-05
-2.03444e-05
-2.00755e-05
-2.01445e-05
-2.07571e-05
-1.97924e-05
-2.00604e-05
-2.07846e-05
-2.00799e-05
-1.99019e-05
-2.0669e-05
-1.9318e-05
-2.08708e-05
-2.03078e-05
-2.09202e-05
-2.0048e-05
-2.00482e-05
-2.11205e-05
-2.02346e-05
-1.92088e-05
-1.93084e-05
-1.92251e-05
-1.94447e-05
-2.07104e-05
-1.83607e-05
-2.006e-05
-1.94148e-05
-1.7769e-05
-1.86421e-05
-1.99132e-05
-1.99678e-05
-1.81033e-05
-2.02088e-05
-1.85656e-05
-1.9714e-05
-1.97464e-05
-1.83866e-05
-2.18022e-05
-1.94891e-05
-2.05282e-05
-2.10864e-05
-2.13096e-05
-2.13385e-05
-2.22289e-05
-2.34936e-05
-2.36142e-05
-2.34166e-05
-2.15772e-05
-2.06995e-05
-2.07455e-05
-2.1261e-05
-1.82173e-05
-1.68143e-05
-1.84808e-05
-1.78732e-05
-1.43418e-05
-1.47767e-05
-1.8542e-05
-1.45857e-05
-1.01299e-05
-1.59195e-05
-2.06528e-05
-3.83041e-06
-4.59774e-06
-2.00063e-05
-1.90143e-05
-2.40772e-05
-5.29357e-06
-2.33445e-05
-1.03599e-05
-2.31167e-05
-2.60732e-05
-6.17461e-06
-2.47052e-05
-5.00185e-06
-1.10105e-05
-5.2165e-05
3.36685e-05
-2.16345e-05
-0.000121568
5.54501e-05
-0.000152892
6.66116e-05
-3.82512e-05
-0.000168386
0.000251509
-0.00055449
0.00035566
-2.09128e-05
-2.07706e-05
-2.07374e-05
-2.06632e-05
-2.00437e-05
-2.06538e-05
-2.04105e-05
-2.04056e-05
-2.01575e-05
-2.10956e-05
-1.97675e-05
-1.98007e-05
-1.99644e-05
-2.02938e-05
-1.99812e-05
-2.00828e-05
-2.11789e-05
-1.99686e-05
-2.003e-05
-2.08096e-05
-2.01064e-05
-1.98147e-05
-2.09791e-05
-1.9268e-05
-2.07791e-05
-2.04217e-05
-2.0759e-05
-2.06067e-05
-2.00417e-05
-2.0966e-05
-1.9943e-05
-1.91339e-05
-1.94405e-05
-1.93291e-05
-1.82975e-05
-2.04978e-05
-1.87716e-05
-1.9574e-05
-1.89426e-05
-1.83409e-05
-1.97582e-05
-2.07307e-05
-2.03093e-05
-1.77116e-05
-1.94985e-05
-1.83808e-05
-1.97285e-05
-2.01391e-05
-1.7763e-05
-2.16865e-05
-2.1238e-05
-1.89509e-05
-2.08162e-05
-2.1517e-05
-2.22804e-05
-2.21556e-05
-2.33991e-05
-2.37592e-05
-2.32381e-05
-2.20432e-05
-2.18931e-05
-2.13949e-05
-2.13934e-05
-1.96944e-05
-1.79532e-05
-1.95178e-05
-1.91987e-05
-1.60672e-05
-1.62242e-05
-1.7562e-05
-1.66738e-05
-1.36542e-05
-1.3027e-05
-2.48084e-05
-1.25105e-05
-6.45605e-06
-1.33991e-05
-2.26558e-05
-2.47251e-05
-1.93356e-05
-1.79786e-05
-5.16636e-06
-2.34574e-05
-2.37837e-05
-6.20639e-06
-3.00548e-05
1.0233e-05
-9.1234e-06
-7.92873e-05
3.61767e-05
1.18049e-05
-0.000129829
6.85079e-05
-0.000151943
-1.28507e-05
4.06055e-05
-0.00016257
0.000192052
-0.000335802
5.43083e-05
-2.09638e-05
-2.08221e-05
-2.06818e-05
-2.07974e-05
-2.00879e-05
-2.08569e-05
-2.03237e-05
-2.06509e-05
-2.00527e-05
-2.07148e-05
-2.05788e-05
-1.97673e-05
-1.95085e-05
-2.04633e-05
-2.02959e-05
-1.97547e-05
-2.10867e-05
-1.97656e-05
-1.99942e-05
-2.07055e-05
-2.0251e-05
-1.974e-05
-2.1298e-05
-1.9771e-05
-2.01168e-05
-2.06953e-05
-2.09811e-05
-2.101e-05
-1.97115e-05
-2.08934e-05
-2.02287e-05
-1.94074e-05
-1.88143e-05
-1.92774e-05
-1.90707e-05
-2.02528e-05
-1.82045e-05
-1.99583e-05
-1.96939e-05
-1.73297e-05
-1.88242e-05
-2.00777e-05
-1.95843e-05
-1.81307e-05
-2.08755e-05
-1.86139e-05
-1.90134e-05
-2.067e-05
-1.8149e-05
-2.19373e-05
-2.18625e-05
-1.89411e-05
-2.1019e-05
-2.18806e-05
-2.24929e-05
-2.22087e-05
-2.40046e-05
-2.40465e-05
-2.19198e-05
-2.17765e-05
-2.27343e-05
-2.21687e-05
-2.18484e-05
-2.00912e-05
-1.83001e-05
-2.01483e-05
-1.89823e-05
-1.57627e-05
-1.66206e-05
-1.98998e-05
-1.34572e-05
-1.37153e-05
-1.21664e-05
-1.77886e-05
-1.97318e-05
-5.69237e-06
-5.10222e-06
-2.22718e-05
-7.94129e-06
-6.23996e-06
-2.04731e-05
1.47867e-06
-1.08528e-05
-2.56784e-05
-1.13017e-06
-3.40834e-05
-4.80849e-06
1.02802e-06
-4.91843e-05
-1.68826e-05
1.32994e-05
-0.00012109
6.90422e-05
1.365e-05
-9.66431e-05
-5.70079e-05
-0.000127672
0.000180277
-0.000280531
-0.000152972
-2.10153e-05
-2.08718e-05
-2.05943e-05
-2.10358e-05
-2.0034e-05
-2.09238e-05
-2.05476e-05
-2.05722e-05
-2.01936e-05
-2.04365e-05
-2.04873e-05
-2.02446e-05
-1.96758e-05
-2.02217e-05
-2.02258e-05
-1.96678e-05
-2.12001e-05
-1.98397e-05
-2.0116e-05
-2.05045e-05
-2.01109e-05
-1.97923e-05
-2.118e-05
-2.01059e-05
-2.00673e-05
-2.09331e-05
-2.10914e-05
-2.11872e-05
-1.97395e-05
-2.0727e-05
-2.02537e-05
-1.96529e-05
-1.86233e-05
-1.92739e-05
-1.9173e-05
-1.99317e-05
-1.86679e-05
-1.96658e-05
-1.9647e-05
-1.75105e-05
-1.92287e-05
-2.06622e-05
-1.89777e-05
-1.76863e-05
-2.05899e-05
-1.89243e-05
-1.80677e-05
-2.02809e-05
-1.74299e-05
-2.04482e-05
-2.18704e-05
-1.96378e-05
-2.10254e-05
-2.39286e-05
-2.41279e-05
-2.17828e-05
-2.33248e-05
-2.48298e-05
-2.27064e-05
-2.14976e-05
-2.1708e-05
-2.15193e-05
-2.17972e-05
-2.09515e-05
-1.90009e-05
-2.10281e-05
-1.78713e-05
-1.30338e-05
-1.474e-05
-2.00883e-05
-1.86507e-05
-1.20296e-05
-1.10992e-05
-6.68049e-06
-1.56589e-05
-2.67965e-05
-3.78521e-06
-7.39188e-06
-1.07519e-05
-1.86483e-05
-1.43103e-05
-6.49789e-06
-1.01585e-05
-2.31239e-05
-2.3354e-05
-3.43934e-05
-1.41823e-05
-1.25549e-05
-1.37557e-05
-4.61697e-05
2.00146e-05
-6.4356e-05
-1.62557e-05
1.51522e-05
-7.40049e-05
-1.75523e-05
-0.000250576
0.000310778
-5.41867e-06
-0.000135272
-2.10638e-05
-2.09173e-05
-2.03868e-05
-2.1193e-05
-2.0302e-05
-2.08666e-05
-2.06341e-05
-2.08718e-05
-2.00961e-05
-2.02458e-05
-2.06813e-05
-2.01155e-05
-1.97267e-05
-2.02102e-05
-2.05555e-05
-1.94682e-05
-2.10574e-05
-1.98325e-05
-2.01593e-05
-2.03914e-05
-2.01285e-05
-1.99537e-05
-2.08682e-05
-2.07663e-05
-1.95969e-05
-2.10413e-05
-2.11498e-05
-2.13799e-05
-2.02179e-05
-1.99526e-05
-2.04311e-05
-2.05522e-05
-1.81998e-05
-1.93025e-05
-1.90744e-05
-1.91559e-05
-1.96054e-05
-1.90498e-05
-1.97071e-05
-1.87031e-05
-1.8725e-05
-2.0144e-05
-1.90028e-05
-1.87348e-05
-1.9708e-05
-1.92028e-05
-1.84265e-05
-1.99377e-05
-1.84249e-05
-1.96686e-05
-2.22518e-05
-1.87499e-05
-1.97968e-05
-2.27769e-05
-2.38079e-05
-2.20642e-05
-2.32803e-05
-2.39456e-05
-2.32319e-05
-2.266e-05
-2.16363e-05
-2.1232e-05
-2.14535e-05
-2.08215e-05
-1.93811e-05
-2.07688e-05
-1.95247e-05
-1.61663e-05
-1.67097e-05
-1.24917e-05
-1.58267e-05
-2.11923e-05
-1.8451e-05
-8.32826e-06
-1.07765e-05
-2.3755e-05
-2.14811e-05
-1.86341e-05
4.77042e-07
-1.77748e-05
-1.62148e-05
-1.05559e-05
-1.2613e-05
-1.54304e-05
-2.80447e-05
-2.76835e-05
-2.26036e-05
-1.95099e-05
-2.61783e-05
-2.31416e-05
-2.09955e-05
-8.37031e-06
-6.1052e-05
1.88251e-05
-0.000173585
0.000281487
-0.0003024
1.31469e-06
3.41931e-05
-2.95799e-06
-2.11e-05
-2.09483e-05
-2.01069e-05
-2.14267e-05
-2.06272e-05
-2.05624e-05
-2.08058e-05
-2.09823e-05
-2.03446e-05
-1.99404e-05
-2.03955e-05
-2.05595e-05
-2.01022e-05
-1.96478e-05
-2.07562e-05
-1.96551e-05
-2.08e-05
-2.03217e-05
-1.99914e-05
-1.99433e-05
-1.99913e-05
-2.0277e-05
-2.06859e-05
-2.08353e-05
-1.97218e-05
-2.10771e-05
-2.11168e-05
-2.15471e-05
-2.05657e-05
-1.94816e-05
-2.02858e-05
-2.0932e-05
-1.80791e-05
-1.92953e-05
-1.90588e-05
-1.87295e-05
-2.00303e-05
-1.88323e-05
-1.94443e-05
-1.93456e-05
-1.8634e-05
-1.96462e-05
-1.91462e-05
-1.91345e-05
-1.91318e-05
-1.93363e-05
-1.89772e-05
-1.9287e-05
-1.98605e-05
-1.79616e-05
-2.21687e-05
-2.01302e-05
-2.08173e-05
-2.12597e-05
-2.25351e-05
-2.36153e-05
-2.3475e-05
-2.27041e-05
-2.28079e-05
-2.31856e-05
-2.31254e-05
-2.18103e-05
-2.1121e-05
-2.02079e-05
-1.96066e-05
-2.07376e-05
-1.90892e-05
-1.69828e-05
-1.89592e-05
-1.32591e-05
-1.38698e-05
-2.19066e-05
-1.67642e-05
-1.03771e-05
-3.31127e-06
-3.56501e-05
-5.196e-07
-3.86912e-06
-2.26804e-05
-1.23688e-05
-1.5879e-05
-9.85769e-06
-1.52056e-05
-1.50751e-05
-2.02562e-05
-1.79049e-05
-4.05624e-05
8.9923e-06
-2.55698e-05
-4.01863e-05
-3.32098e-06
-3.09541e-05
-8.6878e-05
7.25423e-05
-0.000201735
0.000101103
0.000108406
-0.000240167
-9.89211e-05
8.59702e-05
-2.11313e-05
-2.09759e-05
-1.9954e-05
-2.1233e-05
-2.10003e-05
-2.07648e-05
-2.08208e-05
-2.10737e-05
-2.04811e-05
-1.98549e-05
-2.00643e-05
-2.00446e-05
-2.08486e-05
-1.96733e-05
-2.09233e-05
-1.97714e-05
-2.05754e-05
-2.05147e-05
-1.98875e-05
-2.0079e-05
-1.99761e-05
-2.03241e-05
-1.97114e-05
-2.12593e-05
-1.99217e-05
-2.0988e-05
-2.15377e-05
-2.16443e-05
-2.09495e-05
-1.87524e-05
-2.00275e-05
-2.14181e-05
-1.81264e-05
-1.9591e-05
-1.91856e-05
-1.81283e-05
-2.0287e-05
-1.85514e-05
-1.91367e-05
-2.01407e-05
-1.92373e-05
-1.81011e-05
-2.00997e-05
-1.94546e-05
-1.9008e-05
-1.89851e-05
-1.94927e-05
-1.88687e-05
-2.03456e-05
-1.78612e-05
-2.03769e-05
-2.09086e-05
-2.06217e-05
-2.12848e-05
-2.14148e-05
-2.24064e-05
-2.24934e-05
-2.39838e-05
-2.28043e-05
-2.10113e-05
-2.15317e-05
-2.19192e-05
-2.21972e-05
-2.17729e-05
-2.08065e-05
-1.83283e-05
-2.34558e-05
-1.77246e-05
-1.32101e-05
-2.56219e-05
-9.51832e-06
-1.03473e-05
-1.65931e-05
-2.05024e-05
-1.07708e-05
-9.92697e-06
-2.17062e-05
-1.01061e-05
-8.09053e-06
-5.25497e-06
-3.05834e-05
-1.30089e-05
-1.24031e-05
-1.71561e-05
-1.66916e-05
9.98162e-06
-7.86993e-05
-2.45312e-06
1.52258e-05
-6.47989e-05
1.89161e-05
-7.4471e-05
-5.63695e-05
7.84522e-06
-3.19927e-05
-2.33894e-05
4.50238e-05
-0.000122442
-4.42963e-05
3.18442e-05
-2.11522e-05
-2.10019e-05
-1.98202e-05
-2.10107e-05
-2.14989e-05
-2.03804e-05
-2.11037e-05
-2.11112e-05
-2.04297e-05
-2.02617e-05
-1.99354e-05
-1.96265e-05
-2.15238e-05
-1.9082e-05
-2.08559e-05
-2.05484e-05
-1.99477e-05
-2.10403e-05
-1.98249e-05
-2.02999e-05
-1.98394e-05
-2.00806e-05
-1.9301e-05
-2.09901e-05
-2.08173e-05
-2.03104e-05
-2.10958e-05
-2.2395e-05
-2.10998e-05
-1.92793e-05
-1.9667e-05
-2.10513e-05
-1.87275e-05
-1.90353e-05
-1.97772e-05
-1.80043e-05
-1.96145e-05
-1.86149e-05
-1.92474e-05
-2.03672e-05
-1.98139e-05
-1.75864e-05
-1.99695e-05
-1.99429e-05
-1.91412e-05
-1.90475e-05
-1.90509e-05
-1.92076e-05
-1.96522e-05
-1.96455e-05
-1.92308e-05
-2.0388e-05
-2.04508e-05
-2.18105e-05
-2.23085e-05
-2.15255e-05
-2.13718e-05
-2.39305e-05
-2.3453e-05
-2.15379e-05
-2.14911e-05
-2.10729e-05
-2.0703e-05
-2.19864e-05
-1.96832e-05
-1.91212e-05
-1.95747e-05
-2.46832e-05
-9.25843e-06
-1.23951e-05
-2.04619e-05
-2.00436e-05
-1.92029e-05
-1.07389e-05
-1.41158e-05
-1.55875e-05
-3.12515e-05
-5.59162e-06
-1.51608e-05
-2.56938e-06
-2.50807e-05
-1.35493e-05
6.36469e-07
-3.04395e-05
-1.71515e-06
1.3842e-05
-7.04143e-05
-2.17126e-05
1.40619e-05
-7.79094e-05
2.90911e-05
2.0742e-05
-6.40248e-05
-7.99598e-05
-6.22597e-06
9.75712e-06
3.57671e-06
-1.93055e-05
-9.16357e-06
-0.000225957
-2.1175e-05
-2.1132e-05
-1.99171e-05
-2.07249e-05
-2.11686e-05
-2.06249e-05
-2.12172e-05
-2.09455e-05
-2.10282e-05
-2.04165e-05
-2.02306e-05
-1.86586e-05
-2.14987e-05
-1.95869e-05
-2.02642e-05
-2.08567e-05
-2.01496e-05
-2.13504e-05
-1.92702e-05
-2.08675e-05
-1.94752e-05
-2.00196e-05
-1.97639e-05
-2.01003e-05
-2.1324e-05
-2.07966e-05
-2.00434e-05
-2.21284e-05
-2.1968e-05
-2.00688e-05
-1.89432e-05
-2.00694e-05
-1.99683e-05
-1.79814e-05
-2.10756e-05
-1.80597e-05
-1.85133e-05
-1.95438e-05
-1.91502e-05
-1.93369e-05
-2.11886e-05
-1.9406e-05
-1.79937e-05
-1.98413e-05
-1.96419e-05
-1.95489e-05
-1.91644e-05
-1.87936e-05
-1.96032e-05
-2.00114e-05
-1.86184e-05
-2.10073e-05
-1.99956e-05
-2.05975e-05
-2.1855e-05
-2.20795e-05
-2.05449e-05
-2.04981e-05
-2.3094e-05
-2.25775e-05
-2.15031e-05
-2.08675e-05
-2.01315e-05
-2.27064e-05
-1.78008e-05
-1.85623e-05
-1.96029e-05
-2.03983e-05
-1.90484e-05
-1.48724e-05
-1.71715e-05
-1.80601e-05
-2.24854e-05
-2.07909e-05
-1.19324e-05
6.56645e-06
-4.52936e-05
-2.32185e-05
-7.74081e-06
-9.33028e-06
-1.23824e-05
-3.49346e-05
5.13194e-06
-2.5516e-05
-1.95843e-05
3.28287e-06
-2.42958e-05
-3.07293e-05
1.82973e-05
-0.000106222
2.6105e-05
3.36908e-05
-5.12529e-05
-6.38852e-05
-3.26201e-05
-2.56317e-05
1.14249e-05
3.50543e-07
-5.36216e-05
-4.65253e-05
-2.1187e-05
-2.12854e-05
-2.00743e-05
-2.02676e-05
-2.10982e-05
-2.05844e-05
-2.13386e-05
-2.11129e-05
-2.10779e-05
-2.00918e-05
-2.10352e-05
-1.86244e-05
-2.06749e-05
-2.00123e-05
-2.00795e-05
-2.14539e-05
-1.9663e-05
-2.13664e-05
-1.93691e-05
-2.10772e-05
-1.98853e-05
-1.96104e-05
-2.00945e-05
-1.92425e-05
-2.0672e-05
-2.18937e-05
-2.04059e-05
-2.06601e-05
-2.17336e-05
-2.08817e-05
-1.95426e-05
-1.87856e-05
-2.05995e-05
-1.82244e-05
-2.08463e-05
-1.86629e-05
-1.83896e-05
-1.96794e-05
-1.93901e-05
-1.89363e-05
-2.08984e-05
-2.08237e-05
-1.81164e-05
-2.05005e-05
-1.92507e-05
-1.93664e-05
-1.96114e-05
-1.89027e-05
-1.88881e-05
-2.04723e-05
-1.84524e-05
-1.99397e-05
-2.02237e-05
-2.01145e-05
-2.11588e-05
-2.1526e-05
-2.0684e-05
-2.0992e-05
-2.19794e-05
-2.12639e-05
-2.12864e-05
-2.08132e-05
-1.99836e-05
-2.12972e-05
-1.99111e-05
-1.79295e-05
-1.92906e-05
-1.73349e-05
-2.70783e-05
-1.41618e-05
-1.07768e-05
-1.79232e-05
-2.30955e-05
-2.02738e-05
-1.72961e-05
-7.06221e-06
-8.96005e-06
-2.8972e-05
-1.30824e-05
-2.39251e-05
-2.53857e-06
-2.90205e-05
-9.40302e-06
-2.74739e-06
-5.44371e-05
3.89291e-06
4.51911e-06
-6.89146e-05
3.32534e-05
-5.67582e-05
-7.33634e-05
9.47229e-05
-0.000178989
4.46519e-05
4.87976e-05
-0.000126488
3.38574e-05
-0.000184571
-4.10069e-06
0.00030658
-2.11905e-05
-2.10301e-05
-2.05298e-05
-2.04899e-05
-2.05299e-05
-2.07893e-05
-2.10622e-05
-2.0948e-05
-2.15639e-05
-1.97815e-05
-2.11129e-05
-1.92067e-05
-2.00251e-05
-2.02315e-05
-2.00015e-05
-2.1406e-05
-1.99574e-05
-2.14336e-05
-2.00038e-05
-2.06685e-05
-1.98726e-05
-1.97538e-05
-1.99114e-05
-1.9748e-05
-1.99387e-05
-2.12791e-05
-2.09999e-05
-2.01983e-05
-2.10824e-05
-2.06117e-05
-2.09451e-05
-1.77913e-05
-2.05767e-05
-1.88361e-05
-1.97591e-05
-1.95297e-05
-1.87313e-05
-1.94321e-05
-1.99675e-05
-2.03391e-05
-1.90674e-05
-2.21479e-05
-1.82359e-05
-2.00952e-05
-2.04465e-05
-1.91531e-05
-1.90052e-05
-2.00896e-05
-1.98096e-05
-1.87232e-05
-1.87107e-05
-1.92498e-05
-1.946e-05
-1.95712e-05
-1.97248e-05
-2.06727e-05
-2.11865e-05
-2.10642e-05
-2.13943e-05
-2.09757e-05
-2.00668e-05
-2.07203e-05
-2.15148e-05
-1.82812e-05
-2.06979e-05
-2.09651e-05
-1.6892e-05
-1.4752e-05
-1.91164e-05
-2.13123e-05
-1.86693e-05
-1.54816e-05
-1.51381e-05
-1.94906e-05
-2.06796e-05
-1.75782e-05
-1.47474e-05
-1.84273e-05
-6.22253e-06
-2.94806e-05
-1.02879e-05
-1.22579e-05
-2.83685e-05
1.36017e-05
-2.25523e-05
-5.10483e-05
-1.24179e-05
-4.37226e-05
5.26796e-06
3.08698e-06
-0.000141024
4.84265e-05
7.51192e-05
-0.000235733
0.000173706
1.87307e-05
-0.000200621
-1.45729e-05
6.38473e-05
0.000139115
-2.11885e-05
-2.10316e-05
-2.07189e-05
-2.04215e-05
-2.03501e-05
-2.08927e-05
-2.08463e-05
-2.09417e-05
-2.15237e-05
-1.98078e-05
-2.09702e-05
-1.94666e-05
-1.97917e-05
-2.036e-05
-2.00909e-05
-2.13801e-05
-2.03175e-05
-2.11696e-05
-2.05437e-05
-2.03578e-05
-1.98751e-05
-2.0018e-05
-1.93492e-05
-2.01652e-05
-1.97741e-05
-2.06855e-05
-2.13628e-05
-1.99416e-05
-2.09105e-05
-2.02956e-05
-2.14219e-05
-1.76834e-05
-1.97631e-05
-2.01511e-05
-1.92429e-05
-1.92293e-05
-1.95464e-05
-1.9666e-05
-1.92478e-05
-2.14662e-05
-1.92338e-05
-2.05713e-05
-2.08992e-05
-1.96646e-05
-1.92764e-05
-2.03102e-05
-1.84322e-05
-1.98184e-05
-2.00322e-05
-1.93625e-05
-1.8639e-05
-1.80075e-05
-1.91058e-05
-1.9999e-05
-1.98274e-05
-1.96712e-05
-2.01002e-05
-2.05948e-05
-2.10367e-05
-1.97518e-05
-2.06118e-05
-2.07415e-05
-2.04586e-05
-1.96621e-05
-1.93152e-05
-1.98762e-05
-1.86595e-05
-1.67481e-05
-1.99601e-05
-1.7751e-05
-1.5132e-05
-2.09086e-05
-2.1917e-05
-1.19934e-05
-1.19007e-05
-3.69328e-05
-4.49418e-06
-1.67221e-05
-4.94721e-06
-1.65608e-05
-3.85007e-05
4.55462e-06
-1.19844e-05
-4.50888e-05
1.05804e-05
-7.9887e-06
-5.51592e-05
-2.46186e-05
-6.35278e-05
4.45243e-05
9.00952e-06
-0.000145511
0.000123394
-0.000210911
6.32763e-05
0.000112354
-7.27601e-05
-0.000140458
7.61761e-05
8.1811e-05
-2.11803e-05
-2.1029e-05
-2.12256e-05
-2.02503e-05
-2.0255e-05
-2.09614e-05
-2.01596e-05
-2.149e-05
-2.03756e-05
-2.06539e-05
-2.02268e-05
-2.0171e-05
-1.94875e-05
-2.01413e-05
-2.1044e-05
-2.07551e-05
-2.12352e-05
-2.04655e-05
-2.17401e-05
-1.94865e-05
-2.06472e-05
-1.96378e-05
-1.93239e-05
-2.00062e-05
-1.9626e-05
-2.06407e-05
-2.03463e-05
-2.09253e-05
-1.92245e-05
-2.13003e-05
-1.99505e-05
-1.90619e-05
-1.92399e-05
-2.02468e-05
-1.92641e-05
-1.92951e-05
-1.98371e-05
-1.98999e-05
-2.0009e-05
-2.0486e-05
-2.10725e-05
-2.0497e-05
-2.2182e-05
-1.81821e-05
-2.10485e-05
-2.10041e-05
-1.87195e-05
-1.86072e-05
-1.89928e-05
-1.86354e-05
-1.85717e-05
-1.89962e-05
-1.94922e-05
-1.9498e-05
-1.9139e-05
-1.88038e-05
-1.8048e-05
-2.15603e-05
-1.99479e-05
-1.76475e-05
-1.88121e-05
-1.98141e-05
-1.94197e-05
-2.06778e-05
-1.9352e-05
-1.81079e-05
-2.0148e-05
-2.02561e-05
-1.89984e-05
-1.90196e-05
-1.5091e-05
-1.61502e-05
-1.95202e-05
-1.83168e-05
-1.42905e-05
-1.70764e-05
-2.57386e-05
-1.55535e-05
-2.46905e-05
-3.62829e-06
-3.21855e-05
-2.0979e-05
-9.68589e-06
-5.38129e-05
1.33408e-07
-2.4361e-06
-4.68459e-05
-3.72585e-06
-3.09944e-05
-5.16364e-05
1.33145e-05
-1.80096e-05
-0.000134306
0.000171006
-5.24758e-05
-0.000147767
1.13977e-05
0.000102888
3.50566e-05
-0.000135526
-2.11672e-05
-2.10174e-05
-2.13436e-05
-2.00657e-05
-2.03604e-05
-2.09528e-05
-2.00163e-05
-2.1613e-05
-1.99166e-05
-2.09109e-05
-2.0046e-05
-2.01954e-05
-1.96367e-05
-2.00764e-05
-2.11858e-05
-2.08965e-05
-2.12012e-05
-2.06755e-05
-2.17097e-05
-1.93323e-05
-2.09821e-05
-1.91995e-05
-1.96877e-05
-1.9729e-05
-1.94628e-05
-2.08609e-05
-2.00566e-05
-2.0576e-05
-1.91512e-05
-2.18585e-05
-1.90064e-05
-1.9218e-05
-1.98229e-05
-1.96502e-05
-1.94265e-05
-1.97705e-05
-1.97597e-05
-1.98246e-05
-2.02594e-05
-2.09474e-05
-2.11256e-05
-2.12081e-05
-2.10107e-05
-2.02475e-05
-2.06221e-05
-1.83191e-05
-2.1877e-05
-1.81368e-05
-1.75861e-05
-1.92442e-05
-1.93857e-05
-1.79207e-05
-1.87784e-05
-1.90713e-05
-1.95369e-05
-1.90434e-05
-1.80233e-05
-1.98128e-05
-1.66135e-05
-1.98855e-05
-2.0177e-05
-1.86257e-05
-1.88593e-05
-2.08315e-05
-1.78667e-05
-2.00569e-05
-2.11104e-05
-2.1686e-05
-9.83214e-06
-1.65558e-05
-2.50053e-05
-1.85625e-05
-1.33051e-05
-1.58294e-05
-2.12717e-05
-2.1539e-05
-2.59406e-05
-1.27993e-05
-1.90397e-05
-4.60998e-06
-2.60157e-05
-3.2297e-05
-1.92194e-05
-2.51988e-05
5.3826e-06
-6.28632e-05
-4.43983e-06
8.50995e-06
-4.99232e-05
-4.76903e-05
1.30226e-05
-6.22718e-06
-8.48943e-05
7.17464e-05
-0.000201101
9.01706e-05
7.55628e-05
-1.42269e-05
-0.000350002
0.000387863
-2.11512e-05
-2.09987e-05
-2.12806e-05
-1.96156e-05
-2.08571e-05
-2.08526e-05
-2.00913e-05
-2.19412e-05
-1.93547e-05
-2.10196e-05
-1.97862e-05
-2.01448e-05
-1.98906e-05
-2.00366e-05
-2.14846e-05
-2.09939e-05
-2.10062e-05
-2.14064e-05
-2.12132e-05
-1.92596e-05
-2.11435e-05
-1.88195e-05
-2.01257e-05
-1.92356e-05
-2.00212e-05
-2.07422e-05
-1.92213e-05
-1.98125e-05
-2.02128e-05
-2.15707e-05
-1.79005e-05
-2.01538e-05
-1.95571e-05
-1.89128e-05
-2.00064e-05
-2.03732e-05
-1.92865e-05
-2.00104e-05
-2.13901e-05
-2.12735e-05
-2.11806e-05
-2.1554e-05
-2.05879e-05
-2.09977e-05
-2.05881e-05
-1.92768e-05
-2.02132e-05
-1.72e-05
-2.06883e-05
-1.90481e-05
-1.66216e-05
-1.84405e-05
-1.9876e-05
-1.69373e-05
-1.81599e-05
-1.92081e-05
-2.01263e-05
-1.7647e-05
-1.66996e-05
-1.94292e-05
-1.98058e-05
-1.91891e-05
-1.86002e-05
-1.64999e-05
-1.81168e-05
-2.00231e-05
-1.87403e-05
-2.06901e-05
-1.78753e-05
-1.91212e-05
-1.97792e-05
-2.13146e-05
-5.9239e-06
-2.61244e-05
-3.14362e-05
-1.66713e-06
-2.79722e-05
-1.76718e-05
-2.27015e-05
-1.78217e-05
-2.4437e-05
-2.63419e-05
-1.62781e-05
-1.66527e-05
-1.77741e-05
-3.05696e-05
4.11201e-06
-7.06125e-05
5.68745e-06
9.91982e-06
-5.94793e-05
-2.2476e-05
1.57561e-06
-0.0001197
0.000142571
-3.00323e-05
-0.000110816
3.82908e-05
-5.87338e-05
-3.91948e-05
-2.11278e-05
-2.0964e-05
-2.11099e-05
-1.96784e-05
-2.11792e-05
-2.03907e-05
-2.0594e-05
-2.15122e-05
-1.90469e-05
-2.11534e-05
-1.99101e-05
-2.04084e-05
-1.94219e-05
-2.03949e-05
-2.16519e-05
-2.10355e-05
-2.10608e-05
-2.13794e-05
-2.05435e-05
-1.99394e-05
-2.09653e-05
-1.84401e-05
-2.03672e-05
-1.89076e-05
-2.05689e-05
-2.01205e-05
-1.88751e-05
-2.06829e-05
-2.09989e-05
-1.9146e-05
-1.81001e-05
-2.08502e-05
-1.91864e-05
-1.94556e-05
-1.99843e-05
-2.03922e-05
-1.89047e-05
-2.08238e-05
-2.17447e-05
-2.13546e-05
-2.16452e-05
-2.16118e-05
-2.08057e-05
-2.12405e-05
-1.98913e-05
-2.02322e-05
-1.87622e-05
-1.8921e-05
-2.07903e-05
-1.71772e-05
-1.73929e-05
-1.8772e-05
-1.87822e-05
-1.6405e-05
-1.83684e-05
-1.92771e-05
-1.88219e-05
-1.68351e-05
-1.84088e-05
-1.86859e-05
-1.84495e-05
-1.82382e-05
-1.79507e-05
-1.77562e-05
-1.8451e-05
-1.72291e-05
-1.76189e-05
-1.87003e-05
-1.92452e-05
-1.82849e-05
-1.77306e-05
-2.07774e-05
-1.85757e-05
-2.21422e-05
-2.28234e-05
-1.5827e-05
-1.95374e-05
-2.33871e-05
-3.00896e-05
-2.67646e-05
-1.67103e-05
-1.61534e-05
-5.44228e-07
-2.07543e-05
-3.62266e-05
-4.46915e-06
-1.5493e-05
-7.12867e-05
2.09821e-05
1.18863e-05
-0.000113554
7.84338e-05
-1.64668e-05
-0.00012167
2.59698e-05
-9.86793e-05
0.00014577
-0.000139461
1.42078e-05
2.57532e-06
-2.11061e-05
-2.09465e-05
-2.07591e-05
-1.98198e-05
-2.15956e-05
-2.01579e-05
-2.08873e-05
-2.08011e-05
-1.90191e-05
-2.14929e-05
-1.99696e-05
-1.98902e-05
-1.98357e-05
-2.11222e-05
-2.10371e-05
-2.08611e-05
-2.11441e-05
-2.10192e-05
-2.03263e-05
-2.0765e-05
-2.01979e-05
-1.87988e-05
-2.05328e-05
-1.90472e-05
-2.04102e-05
-1.94527e-05
-1.95893e-05
-2.09027e-05
-2.04199e-05
-1.81443e-05
-1.93902e-05
-2.04436e-05
-1.92261e-05
-1.94297e-05
-1.93205e-05
-2.04587e-05
-1.94685e-05
-2.15086e-05
-2.13948e-05
-2.14111e-05
-2.25864e-05
-2.11648e-05
-2.15177e-05
-2.10912e-05
-1.96703e-05
-2.10009e-05
-1.72204e-05
-2.08018e-05
-2.07639e-05
-1.62922e-05
-1.66675e-05
-1.82174e-05
-1.88268e-05
-1.67162e-05
-1.79446e-05
-1.86208e-05
-1.79898e-05
-1.71094e-05
-1.63015e-05
-1.80205e-05
-1.85846e-05
-1.80903e-05
-1.75888e-05
-1.75873e-05
-1.81594e-05
-1.80927e-05
-2.10523e-05
-1.51127e-05
-2.26248e-05
-1.99655e-05
-1.789e-05
-1.73412e-05
-2.09955e-05
-2.5967e-05
-1.97875e-05
-1.23758e-05
-1.88995e-05
-2.86795e-05
-2.16929e-05
-2.4134e-05
-1.31118e-05
-1.57567e-05
-1.18662e-05
-1.99135e-05
-4.54971e-05
1.27836e-06
-1.19563e-05
-9.46025e-05
3.67173e-05
-4.07802e-06
-9.70259e-05
9.69876e-05
-0.000146918
-5.03055e-07
7.17943e-05
-0.000171259
0.000112983
7.36902e-05
-0.000257883
-0.000127862
-2.10753e-05
-2.09207e-05
-2.08732e-05
-1.98305e-05
-2.13361e-05
-2.01154e-05
-2.09575e-05
-2.01352e-05
-1.96869e-05
-2.1247e-05
-1.98906e-05
-2.01003e-05
-2.00208e-05
-2.14996e-05
-2.04261e-05
-2.1236e-05
-2.11908e-05
-2.02169e-05
-2.06394e-05
-2.07484e-05
-1.96094e-05
-1.97425e-05
-1.99863e-05
-1.94915e-05
-2.0621e-05
-1.87739e-05
-2.02375e-05
-2.04524e-05
-1.96477e-05
-1.81876e-05
-1.99964e-05
-2.02659e-05
-1.93998e-05
-1.92416e-05
-1.95627e-05
-2.04276e-05
-1.96605e-05
-2.16147e-05
-2.106e-05
-2.16228e-05
-2.24553e-05
-2.12572e-05
-2.14471e-05
-2.11714e-05
-1.99478e-05
-2.02084e-05
-1.83903e-05
-2.11535e-05
-1.81992e-05
-1.71063e-05
-1.75822e-05
-1.81422e-05
-1.87758e-05
-1.59346e-05
-1.88779e-05
-1.95384e-05
-1.51186e-05
-1.66899e-05
-1.8721e-05
-1.84689e-05
-1.76357e-05
-1.66869e-05
-1.7934e-05
-1.88158e-05
-1.79654e-05
-1.85538e-05
-1.78668e-05
-1.71727e-05
-2.49838e-05
-1.11309e-05
-1.3096e-05
-3.30078e-05
-2.54151e-05
-1.85517e-07
-3.17936e-05
-2.61511e-05
-2.94496e-05
-1.46647e-05
-1.03589e-05
-2.2929e-05
-2.04697e-05
-2.04845e-05
-2.5787e-05
-1.6206e-05
-4.89321e-05
4.35858e-06
-1.30161e-05
-7.29783e-05
2.29516e-05
-6.96993e-05
4.29182e-05
4.25845e-05
-0.000176568
0.000124796
6.51594e-06
-0.00022434
0.000241248
9.19284e-05
-0.000223748
-1.22551e-05
-2.10417e-05
-2.08906e-05
-2.0789e-05
-2.02106e-05
-2.09561e-05
-2.01135e-05
-2.07146e-05
-1.96862e-05
-2.04938e-05
-2.12628e-05
-1.96387e-05
-2.00021e-05
-2.05096e-05
-2.12725e-05
-2.02096e-05
-2.11796e-05
-2.08412e-05
-2.03801e-05
-2.08303e-05
-2.07615e-05
-1.96077e-05
-2.00877e-05
-1.93018e-05
-1.97133e-05
-2.05169e-05
-1.86938e-05
-2.05434e-05
-2.01424e-05
-1.91825e-05
-1.85758e-05
-2.02147e-05
-1.97737e-05
-1.9551e-05
-1.90927e-05
-1.99618e-05
-1.96504e-05
-2.07564e-05
-2.1753e-05
-2.09233e-05
-2.18485e-05
-2.1429e-05
-2.22783e-05
-2.08874e-05
-2.14835e-05
-2.06759e-05
-1.84906e-05
-2.05907e-05
-1.95325e-05
-1.49904e-05
-1.9592e-05
-1.97939e-05
-1.71353e-05
-1.67597e-05
-1.65808e-05
-2.01823e-05
-1.78052e-05
-1.50007e-05
-1.80621e-05
-1.89333e-05
-1.5632e-05
-1.76514e-05
-1.66421e-05
-1.79347e-05
-1.86731e-05
-1.71078e-05
-1.70454e-05
-1.70702e-05
-1.90202e-05
-1.64496e-05
-1.5348e-05
-2.87431e-05
-2.94549e-05
-1.54081e-05
-1.23891e-05
-3.10833e-05
-3.60873e-05
-2.1578e-05
-1.41789e-05
-1.55498e-05
-1.99144e-05
-2.19058e-05
-2.50166e-05
-3.32472e-05
-2.23417e-05
-4.12903e-05
8.87743e-06
-1.51787e-05
-3.88191e-05
-1.4379e-05
-5.09923e-05
8.1116e-05
-8.92324e-05
-0.000132929
9.63242e-05
-7.95985e-05
-4.99887e-05
0.000266319
-0.000236229
-1.73619e-06
6.34547e-05
-2.10073e-05
-2.08563e-05
-2.06819e-05
-2.01913e-05
-2.09456e-05
-2.01919e-05
-2.04244e-05
-1.97732e-05
-2.12108e-05
-2.05035e-05
-1.95543e-05
-2.03132e-05
-2.06877e-05
-2.10138e-05
-1.99876e-05
-2.13279e-05
-2.04212e-05
-2.06022e-05
-2.09921e-05
-2.05139e-05
-1.96697e-05
-2.0311e-05
-1.90195e-05
-1.97615e-05
-2.02567e-05
-1.87627e-05
-2.08348e-05
-1.98308e-05
-1.88324e-05
-1.87972e-05
-2.03575e-05
-1.98906e-05
-1.97117e-05
-1.90851e-05
-2.01958e-05
-1.93864e-05
-2.11291e-05
-2.15137e-05
-2.09258e-05
-2.15751e-05
-2.13226e-05
-2.26697e-05
-2.07708e-05
-2.13615e-05
-2.07072e-05
-1.85146e-05
-1.98331e-05
-1.94624e-05
-1.59995e-05
-2.00324e-05
-1.82132e-05
-1.73532e-05
-1.72988e-05
-1.85064e-05
-1.84071e-05
-1.4727e-05
-1.72372e-05
-1.85076e-05
-1.65542e-05
-1.69088e-05
-1.93281e-05
-1.54593e-05
-1.83497e-05
-1.84032e-05
-1.68713e-05
-1.84266e-05
-1.86303e-05
-1.83235e-05
-1.74123e-05
-2.03444e-05
-2.52928e-05
-2.05238e-05