/*--------------------------------*- C++ -*----------------------------------*\
| =========                 |                                                 |
| \\      /  F ield         | OpenFOAM: The Open Source CFD Toolbox           |
|  \\    /   O peration     | Version:  2.3.1                                 |
|   \\  /    A nd           | Web:      www.OpenFOAM.org                      |
|    \\/     M anipulation  |                                                 |
\*---------------------------------------------------------------------------*/
FoamFile
{
    version     2.0;
    format      ascii;
    class       volScalarField;
    location    "1000";
    object      ddt0(omega);
}
// * * * * * * * * * * * * * * * * * * * * * * * * * * * * * * * * * * * * * //

dimensions      [0 0 -2 0 0 0 0];

internalField   nonuniform List<scalar> 
4825
(
-1.12098e-06
-1.11818e-06
-1.11661e-06
-1.11514e-06
-1.11376e-06
-1.11407e-06
-1.11136e-06
-1.10335e-06
-1.11117e-06
-1.09568e-06
-1.07714e-06
-1.11497e-06
-1.16085e-06
-1.11682e-06
-1.04626e-06
-1.03422e-06
-1.11913e-06
-1.29647e-06
-1.11231e-06
-8.03813e-07
-9.87472e-07
-1.04664e-06
-1.07273e-06
-1.13376e-06
-1.14346e-06
-1.30646e-06
-1.14876e-06
-7.07714e-07
-1.09897e-06
-1.30147e-06
-1.30013e-06
-1.27752e-06
-1.01079e-06
-7.11837e-07
-7.78187e-07
-1.04838e-06
-1.12792e-06
-5.01101e-07
-9.28378e-07
-2.68019e-06
-2.69295e-06
-3.36709e-07
-2.40627e-07
-2.09242e-06
6.50614e-06
-1.02265e-05
-8.58606e-06
1.00849e-06
2.72941e-06
-1.47337e-06
-1.12552e-06
-1.12486e-06
-1.12129e-06
-1.12865e-06
-1.1168e-06
-1.12948e-06
-1.10974e-06
-1.09628e-06
-1.10377e-06
-1.10454e-06
-1.11488e-06
-1.08691e-06
-1.15642e-06
-1.19268e-06
-1.01975e-06
-9.79185e-07
-1.19091e-06
-1.20253e-06
-9.579e-07
-1.01056e-06
-1.1584e-06
-1.10854e-06
-1.10179e-06
-1.22134e-06
-1.27929e-06
-1.21586e-06
-1.00686e-06
-7.20213e-07
-1.0658e-06
-1.20837e-06
-1.21389e-06
-1.08404e-06
-9.84681e-07
-7.97787e-07
-7.57568e-07
-1.0704e-06
-1.11559e-06
-1.1339e-07
-4.25606e-07
-2.49205e-06
-3.08189e-06
-1.07769e-06
-1.20185e-06
-4.23571e-06
4.54367e-06
-2.75061e-06
-1.21632e-05
-4.00657e-06
7.60806e-06
1.44017e-06
-1.13195e-06
-1.13091e-06
-1.10949e-06
-1.1469e-06
-1.1484e-06
-1.11736e-06
-1.11284e-06
-1.08499e-06
-1.0927e-06
-1.09999e-06
-1.13887e-06
-1.11377e-06
-1.11069e-06
-1.20017e-06
-1.10666e-06
-9.89686e-07
-1.11703e-06
-1.28506e-06
-1.12226e-06
-7.66388e-07
-1.00969e-06
-1.06405e-06
-1.12433e-06
-1.15728e-06
-1.16688e-06
-1.34634e-06
-1.27613e-06
-7.78098e-07
-8.02536e-07
-1.0882e-06
-1.17684e-06
-1.21617e-06
-1.26951e-06
-1.15744e-06
-7.79608e-07
-9.72264e-07
-1.46623e-06
-2.16539e-09
-8.84967e-08
-2.16463e-06
-3.18397e-06
-1.71479e-06
-1.77621e-06
-3.65403e-06
5.64185e-06
-1.65599e-06
-1.49016e-05
-7.30045e-06
7.65997e-06
5.93077e-07
-1.13695e-06
-1.13595e-06
-1.10713e-06
-1.14676e-06
-1.17283e-06
-1.10603e-06
-1.14071e-06
-1.08373e-06
-1.08588e-06
-1.12776e-06
-1.08645e-06
-1.12277e-06
-1.14861e-06
-1.17772e-06
-1.09187e-06
-9.71502e-07
-1.08904e-06
-1.27025e-06
-1.10805e-06
-8.67157e-07
-1.06933e-06
-1.08e-06
-1.15126e-06
-1.14717e-06
-1.06146e-06
-1.32669e-06
-1.40133e-06
-1.04091e-06
-5.46243e-07
-1.02288e-06
-1.09525e-06
-1.19157e-06
-1.45662e-06
-1.44388e-06
-4.44272e-07
-6.07088e-07
-1.76035e-06
-1.03401e-06
8.93792e-07
2.16308e-08
-2.55966e-06
-2.23007e-06
-5.38089e-06
-4.86422e-06
9.10447e-06
3.48453e-06
-1.36944e-05
-8.28279e-06
7.4704e-06
8.12643e-06
-1.14078e-06
-1.13956e-06
-1.11206e-06
-1.12847e-06
-1.2046e-06
-1.0955e-06
-1.13467e-06
-1.13173e-06
-1.05724e-06
-1.12393e-06
-1.08472e-06
-1.13457e-06
-1.13984e-06
-1.17464e-06
-1.19111e-06
-9.33883e-07
-9.99829e-07
-1.23967e-06
-1.17918e-06
-9.29961e-07
-1.0226e-06
-1.06234e-06
-1.1317e-06
-1.31958e-06
-9.69786e-07
-1.05262e-06
-1.38548e-06
-1.29107e-06
-8.14463e-07
-9.58956e-07
-9.55726e-07
-9.91277e-07
-1.17541e-06
-1.27535e-06
-1.33219e-06
-8.78839e-07
-1.20736e-06
-1.526e-06
-3.95771e-07
-4.55726e-07
-7.02501e-07
9.34807e-07
-4.11637e-06
-1.01053e-05
7.41555e-06
5.55882e-06
-9.11633e-06
-1.09591e-05
-5.67619e-06
1.69216e-05
-1.14438e-06
-1.14291e-06
-1.13322e-06
-1.12965e-06
-1.16954e-06
-1.10764e-06
-1.11847e-06
-1.13372e-06
-1.08409e-06
-1.14843e-06
-1.1159e-06
-1.10272e-06
-1.12691e-06
-1.11666e-06
-1.2022e-06
-1.02662e-06
-9.55483e-07
-1.1648e-06
-1.24294e-06
-1.09328e-06
-9.34437e-07
-1.0018e-06
-1.0564e-06
-1.28762e-06
-1.20843e-06
-9.6882e-07
-1.21891e-06
-1.23009e-06
-9.63348e-07
-9.67071e-07
-9.97854e-07
-1.0176e-06
-1.03195e-06
-1.18584e-06
-1.49362e-06
-6.14648e-07
-1.19001e-06
-2.12645e-06
-5.3337e-07
-4.0714e-07
-3.11851e-06
4.69862e-06
-3.51193e-07
-1.08969e-05
1.70972e-06
4.74681e-06
-7.41713e-07
-8.89171e-06
-3.52311e-05
5.80177e-06
-1.14601e-06
-1.14353e-06
-1.13678e-06
-1.13494e-06
-1.15088e-06
-1.12134e-06
-1.12553e-06
-1.12874e-06
-1.09566e-06
-1.13593e-06
-1.12227e-06
-1.10256e-06
-1.10504e-06
-1.11024e-06
-1.2169e-06
-1.0606e-06
-9.26887e-07
-1.12799e-06
-1.30104e-06
-1.14778e-06
-8.78664e-07
-1.07579e-06
-9.82137e-07
-1.11955e-06
-1.33878e-06
-1.05237e-06
-1.12636e-06
-1.1474e-06
-1.00069e-06
-1.00387e-06
-1.02506e-06
-1.04857e-06
-1.01902e-06
-1.29507e-06
-1.29749e-06
-4.32739e-07
-1.19537e-06
-2.14218e-06
9.78632e-07
-1.86064e-06
-4.53061e-06
-8.52922e-07
4.62059e-06
8.09083e-07
-2.12807e-05
1.4871e-05
1.41643e-05
-1.34496e-05
-7.59029e-06
-7.65721e-05
-1.14593e-06
-1.14307e-06
-1.1388e-06
-1.13697e-06
-1.13483e-06
-1.13051e-06
-1.12849e-06
-1.12316e-06
-1.11655e-06
-1.1216e-06
-1.12994e-06
-1.11103e-06
-1.07304e-06
-1.10992e-06
-1.20936e-06
-1.11253e-06
-8.93584e-07
-1.06055e-06
-1.39663e-06
-1.24128e-06
-7.71756e-07
-1.10298e-06
-1.03616e-06
-9.92792e-07
-1.29543e-06
-1.20674e-06
-1.05912e-06
-1.09633e-06
-9.04491e-07
-1.02964e-06
-1.08001e-06
-1.06516e-06
-1.2747e-06
-7.32017e-07
-1.04485e-06
-1.74104e-06
-5.99058e-07
-1.58256e-06
-4.80409e-07
-2.87883e-07
-2.11147e-06
-1.62813e-06
-9.50711e-07
6.19388e-06
-1.07875e-05
-3.16581e-06
9.56705e-06
-4.13252e-06
1.37606e-05
-8.37946e-05
-1.14469e-06
-1.14167e-06
-1.13987e-06
-1.13893e-06
-1.11727e-06
-1.1387e-06
-1.12968e-06
-1.11617e-06
-1.14055e-06
-1.10979e-06
-1.13038e-06
-1.10703e-06
-1.05547e-06
-1.14641e-06
-1.16202e-06
-1.08882e-06
-9.35005e-07
-1.11402e-06
-1.38942e-06
-1.12313e-06
-9.08938e-07
-1.06656e-06
-1.01227e-06
-1.06949e-06
-1.17435e-06
-1.23537e-06
-1.14622e-06
-9.43762e-07
-8.69212e-07
-1.08153e-06
-1.02092e-06
-1.02282e-06
-1.27568e-06
-7.66425e-07
-1.25346e-06
-1.56253e-06
-6.07833e-07
-1.50816e-06
-3.0826e-06
3.7326e-06
1.23691e-06
-5.60605e-06
-5.10508e-06
-2.94273e-06
1.22255e-05
-1.5285e-06
-1.94672e-05
8.03136e-06
9.97634e-06
-7.60607e-06
-1.14231e-06
-1.13951e-06
-1.14073e-06
-1.14479e-06
-1.09554e-06
-1.14376e-06
-1.12829e-06
-1.11486e-06
-1.16358e-06
-1.09938e-06
-1.12413e-06
-1.09896e-06
-1.05086e-06
-1.15739e-06
-1.13799e-06
-1.06334e-06
-9.7264e-07
-1.18484e-06
-1.33802e-06
-1.01807e-06
-1.03667e-06
-1.05084e-06
-9.95737e-07
-1.07104e-06
-1.23643e-06
-1.2728e-06
-9.91077e-07
-7.47256e-07
-9.84337e-07
-1.05215e-06
-1.00378e-06
-1.09301e-06
-1.3049e-06
-1.31616e-06
-1.59177e-06
-3.715e-07
-6.1716e-07
-2.65467e-06
4.20516e-07
-1.14891e-07
-2.33167e-06
-3.58038e-06
6.26696e-08
1.16204e-06
2.38104e-06
-1.42063e-06
-1.0112e-05
-2.03594e-06
1.20218e-05
2.83722e-06
-1.13936e-06
-1.13709e-06
-1.15824e-06
-1.14186e-06
-1.05152e-06
-1.1538e-06
-1.11475e-06
-1.12106e-06
-1.18254e-06
-1.10187e-06
-1.1376e-06
-1.05751e-06
-1.05659e-06
-1.16649e-06
-1.1167e-06
-1.00499e-06
-1.02559e-06
-1.33658e-06
-1.24529e-06
-9.58361e-07
-1.10183e-06
-9.95591e-07
-9.09047e-07
-1.20608e-06
-1.40051e-06
-1.1327e-06
-6.97366e-07
-7.21943e-07
-1.15734e-06
-1.16851e-06
-1.15376e-06
-1.2207e-06
-1.22761e-06
-1.18722e-06
-9.55181e-07
-5.57845e-07
-1.50636e-06
-2.32427e-06
1.41275e-07
-1.60915e-06
-2.54744e-06
2.69796e-07
2.93626e-06
-2.84332e-07
6.28661e-07
-1.99445e-06
-1.05521e-05
1.08959e-05
9.60561e-06
-1.21722e-05
-1.13542e-06
-1.13358e-06
-1.15598e-06
-1.1109e-06
-1.08536e-06
-1.14913e-06
-1.09859e-06
-1.14223e-06
-1.1488e-06
-1.10988e-06
-1.13405e-06
-1.07707e-06
-1.09756e-06
-1.12173e-06
-1.06011e-06
-9.62136e-07
-1.12117e-06
-1.33944e-06
-1.14613e-06
-1.01309e-06
-1.07982e-06
-9.9106e-07
-9.84147e-07
-1.29782e-06
-1.2421e-06
-8.33659e-07
-7.73078e-07
-1.0377e-06
-1.29906e-06
-1.0996e-06
-1.05492e-06
-1.09608e-06
-1.03686e-06
-9.63773e-07
-8.28184e-07
-1.0954e-06
-2.7713e-06
-7.15625e-07
2.91248e-07
-2.01349e-06
-9.23425e-07
1.77751e-06
-1.70053e-06
1.60905e-06
-7.83852e-07
-9.68005e-06
7.18968e-07
1.81656e-05
1.93051e-06
-3.15087e-05
-1.13061e-06
-1.12914e-06
-1.14495e-06
-1.10301e-06
-1.10153e-06
-1.12479e-06
-1.11494e-06
-1.14077e-06
-1.13706e-06
-1.13909e-06
-1.10019e-06
-1.07394e-06
-1.07089e-06
-1.11665e-06
-1.1276e-06
-9.6767e-07
-1.10744e-06
-1.31449e-06
-1.15941e-06
-9.71368e-07
-1.10449e-06
-1.02506e-06
-1.06932e-06
-1.31336e-06
-1.15389e-06
-7.48556e-07
-8.63535e-07
-1.1719e-06
-1.22964e-06
-9.96977e-07
-1.02262e-06
-1.0543e-06
-1.07113e-06
-1.0813e-06
-8.83138e-07
-1.26616e-06
-2.65209e-06
1.71817e-07
-1.12292e-07
-3.55917e-06
2.10202e-06
1.43285e-06
-5.32453e-06
3.86768e-06
1.18689e-06
-1.00126e-05
1.03197e-05
1.90388e-05
-1.68017e-05
-2.33486e-05
-1.12527e-06
-1.12411e-06
-1.12568e-06
-1.11382e-06
-1.11456e-06
-1.10223e-06
-1.12047e-06
-1.13719e-06
-1.12947e-06
-1.14448e-06
-1.06687e-06
-1.0419e-06
-1.12407e-06
-1.14897e-06
-1.02282e-06
-9.94438e-07
-1.21948e-06
-1.22399e-06
-9.89813e-07
-1.02967e-06
-1.18325e-06
-1.11656e-06
-1.19008e-06
-1.18558e-06
-9.12487e-07
-8.02258e-07
-1.05757e-06
-1.26644e-06
-1.15635e-06
-8.45279e-07
-1.05814e-06
-1.11518e-06
-1.19731e-06
-1.3381e-06
-1.05193e-06
-1.33712e-06
-2.15585e-06
-4.26237e-09
-4.13947e-07
-2.76792e-06
1.08328e-06
3.45563e-07
-5.38786e-06
3.44889e-06
9.61972e-07
-6.78235e-06
1.16041e-05
4.03431e-06
-2.99193e-05
-1.19435e-05
-1.11728e-06
-1.11559e-06
-1.1146e-06
-1.11304e-06
-1.11172e-06
-1.10938e-06
-1.10795e-06
-1.11969e-06
-1.13391e-06
-1.11801e-06
-1.06821e-06
-1.08933e-06
-1.10937e-06
-1.05953e-06
-9.84585e-07
-1.0401e-06
-1.15372e-06
-1.25176e-06
-1.20705e-06
-1.04713e-06
-1.1129e-06
-1.08655e-06
-1.07104e-06
-1.25063e-06
-9.86328e-07
-8.79544e-07
-1.01909e-06
-1.08133e-06
-9.12829e-07
-8.19959e-07
-9.95758e-07
-1.19057e-06
-1.22932e-06
-1.30028e-06
-1.17955e-06
-1.33014e-06
-1.31004e-06
-3.31645e-07
-7.74143e-07
-1.8567e-06
9.65799e-07
1.33918e-07
-6.9966e-06
3.2458e-06
-1.32744e-06
1.69755e-06
6.64087e-06
-4.0065e-06
-1.41346e-05
3.60111e-06
-1.00458e-06
-1.0255e-06
-8.52861e-07
-7.83648e-07
-8.35373e-07
-9.07839e-07
-9.97156e-07
-1.06109e-06
-1.07656e-06
-1.03606e-06
-9.73388e-07
-9.03167e-07
-9.2206e-07
-1.00948e-06
-1.07294e-06
-1.06559e-06
-9.96017e-07
-9.46576e-07
-9.85486e-07
-1.03039e-06
-1.04304e-06
-9.99198e-07
-1.01027e-06
-1.03006e-06
-1.04767e-06
-1.05483e-06
-1.10532e-06
-1.20886e-06
-9.0565e-07
-7.60257e-07
-8.17599e-07
-4.02823e-07
-6.19704e-08
2.92452e-07
9.96943e-07
6.22532e-07
1.64553e-06
5.4854e-07
-1.41503e-06
-1.87367e-06
-1.19874e-06
-1.10782e-05
-1.4598e-05
-3.80335e-05
-5.17295e-05
-4.85087e-05
-4.73771e-06
8.54865e-05
-6.2523e-05
-0.000178091
-1.0358e-06
-7.85988e-07
-7.81924e-07
-8.88624e-07
-1.009e-06
-1.0757e-06
-1.09675e-06
-1.0758e-06
-1.01916e-06
-9.48335e-07
-8.95369e-07
-9.38398e-07
-1.03624e-06
-1.09729e-06
-1.07423e-06
-9.90309e-07
-9.43507e-07
-9.98001e-07
-1.03571e-06
-1.0465e-06
-1.01849e-06
-9.79666e-07
-1.04612e-06
-1.06197e-06
-1.04991e-06
-1.03712e-06
-1.15786e-06
-1.08501e-06
-6.85562e-07
-6.54877e-07
-6.04396e-07
-1.58388e-07
-6.52434e-08
5.43052e-07
1.02032e-06
5.51565e-07
1.41235e-06
-5.48137e-07
-2.59312e-06
-5.8511e-06
-4.71122e-06
-1.59644e-05
-3.55006e-05
-4.80095e-05
-4.96402e-05
-3.43058e-05
-2.13564e-06
1.12893e-05
-0.000115846
-5.18192e-05
-1.0275e-06
-7.30481e-07
-8.54777e-07
-1.00864e-06
-1.09099e-06
-1.11262e-06
-1.0963e-06
-1.04562e-06
-9.73238e-07
-9.13944e-07
-8.86638e-07
-1.00291e-06
-1.08432e-06
-1.10796e-06
-1.05052e-06
-9.52868e-07
-9.27112e-07
-1.03483e-06
-1.05253e-06
-1.04523e-06
-1.00323e-06
-9.82529e-07
-1.0661e-06
-1.06525e-06
-1.02465e-06
-9.97533e-07
-1.13197e-06
-1.00269e-06
-7.03047e-07
-6.65427e-07
-5.97659e-07
-5.04967e-07
-5.1301e-07
9.70124e-08
-7.23474e-08
-4.95566e-07
-1.05654e-06
-2.01733e-06
-4.68011e-06
-1.18514e-05
-1.12458e-05
-1.52195e-05
-2.90946e-05
-3.50021e-05
-3.55492e-05
-2.42718e-05
-8.04324e-06
3.66158e-05
0.000131347
-4.20016e-05
-1.05784e-06
-9.93806e-07
-1.1032e-06
-1.13018e-06
-1.12646e-06
-1.08824e-06
-1.01694e-06
-9.34377e-07
-8.75343e-07
-8.97964e-07
-1.04821e-06
-1.11097e-06
-1.10806e-06
-1.06166e-06
-9.6538e-07
-9.06457e-07
-1.01613e-06
-1.06717e-06
-1.05971e-06
-1.02628e-06
-9.76403e-07
-1.04568e-06
-1.07237e-06
-1.04872e-06
-9.62885e-07
-9.27097e-07
-9.97223e-07
-8.08929e-07
-9.98999e-07
-9.3415e-07
-4.38473e-07
-8.21197e-07
-5.17491e-07
5.89724e-08
-5.00009e-07
-8.53489e-07
-2.80907e-06
-2.36473e-06
-4.62817e-06
-1.13208e-05
-1.56879e-05
-1.41129e-05
-2.048e-05
-2.87536e-05
-3.20038e-05
-2.49859e-05
-1.91767e-05
-1.01582e-05
9.15334e-06
7.99585e-05
-1.05501e-06
-1.13683e-06
-1.15689e-06
-1.12644e-06
-1.06013e-06
-9.78829e-07
-9.13056e-07
-8.90677e-07
-9.35712e-07
-1.05614e-06
-1.12714e-06
-1.12312e-06
-1.06284e-06
-9.60618e-07
-9.21178e-07
-1.00586e-06
-1.08464e-06
-1.05761e-06
-1.03974e-06
-9.95283e-07
-1.0118e-06
-1.07414e-06
-1.04109e-06
-1.01633e-06
-1.00702e-06
-1.07531e-06
-8.69738e-07
-6.50434e-07
-1.07658e-06
-1.02291e-06
-4.45886e-07
-9.88279e-07
-6.95298e-07
-4.09004e-07
-2.00535e-06
-2.03998e-06
-2.37628e-06
-3.34659e-06
-5.20789e-06
-5.12424e-06
-1.14645e-05
-1.61923e-05
-1.20449e-05
-1.88879e-05
-2.77441e-05
-2.16824e-05
-1.7571e-05
-1.88502e-05
1.21024e-06
-1.83337e-05
-1.07023e-06
-1.11601e-06
-1.06153e-06
-9.96203e-07
-9.294e-07
-9.01888e-07
-9.21446e-07
-9.88633e-07
-1.091e-06
-1.14142e-06
-1.11262e-06
-1.04336e-06
-9.70315e-07
-9.18784e-07
-9.77107e-07
-1.10013e-06
-1.09736e-06
-1.02454e-06
-1.0034e-06
-9.89508e-07
-1.06909e-06
-1.07139e-06
-1.00952e-06
-9.82888e-07
-1.07337e-06
-1.17231e-06
-8.66595e-07
-7.30236e-07
-8.89894e-07
-1.04172e-06
-9.39018e-07
-9.62041e-07
-1.36669e-06
-7.53557e-07
-1.62539e-06
-1.21328e-06
-2.92413e-07
-4.57911e-06
-6.24324e-06
-3.42048e-06
-6.17372e-06
-2.00491e-05
-1.428e-05
-1.64108e-05
-2.90943e-05
-1.58281e-05
-1.36736e-05
-2.6223e-06
3.36429e-05
6.42721e-06
-1.05542e-06
-1.08092e-06
-9.99758e-07
-9.47937e-07
-9.39046e-07
-9.7841e-07
-1.04264e-06
-1.11299e-06
-1.14129e-06
-1.10144e-06
-1.02216e-06
-9.59579e-07
-9.53391e-07
-1.01015e-06
-1.08164e-06
-1.09958e-06
-1.06326e-06
-1.032e-06
-9.83815e-07
-1.04267e-06
-1.08181e-06
-1.04005e-06
-1.01728e-06
-9.58913e-07
-1.00187e-06
-1.02432e-06
-1.0959e-06
-1.17377e-06
-7.10828e-07
-9.71997e-07
-1.12785e-06
-8.52969e-07
-1.02101e-06
-1.02673e-06
-1.66317e-06
-2.88062e-06
-1.95761e-06
-4.26149e-06
-3.18396e-06
-5.24241e-06
-5.08787e-06
-5.857e-06
-2.02488e-05
-7.64292e-06
-2.38868e-05
-5.16962e-06
-8.36519e-06
-9.23985e-06
-2.93112e-05
-2.07277e-06
-1.04753e-06
-9.44705e-07
-9.21261e-07
-9.37408e-07
-1.00071e-06
-1.06724e-06
-1.11072e-06
-1.11856e-06
-1.07711e-06
-1.00329e-06
-9.62867e-07
-9.67881e-07
-1.01892e-06
-1.09911e-06
-1.12192e-06
-1.05344e-06
-1.01375e-06
-1.01463e-06
-1.03181e-06
-1.10195e-06
-1.04833e-06
-9.9735e-07
-1.02924e-06
-1.05877e-06
-9.32152e-07
-7.43478e-07
-1.02192e-06
-1.29305e-06
-1.11652e-06
-6.86742e-07
-1.23586e-06
-1.00421e-06
-1.30134e-06
-1.81176e-06
-1.09714e-06
-1.67374e-06
-1.60411e-06
-1.05506e-06
-1.24343e-07
-7.19016e-06
-6.30478e-06
7.69421e-07
-1.26361e-05
-4.08851e-06
-1.31638e-05
-3.86878e-06
-3.1729e-06
-8.83458e-06
-7.96958e-05
-1.77515e-05
-1.06136e-06
-9.61138e-07
-1.02437e-06
-1.09229e-06
-1.1467e-06
-1.15782e-06
-1.12726e-06
-1.06515e-06
-9.91897e-07
-9.57427e-07
-9.92977e-07
-1.05992e-06
-1.09621e-06
-1.10297e-06
-1.08724e-06
-1.04661e-06
-1.00591e-06
-1.01996e-06
-1.11278e-06
-1.0928e-06
-1.01776e-06
-1.0062e-06
-1.02198e-06
-1.0963e-06
-1.07831e-06
-9.3043e-07
-6.92754e-07
-1.05181e-06
-1.28972e-06
-1.09454e-06
-1.26568e-06
-1.26377e-06
-9.13892e-07
-1.192e-06
-9.60433e-07
-1.13481e-06
-1.30022e-06
-2.18658e-06
-2.61538e-06
-1.61526e-06
-1.10864e-05
-6.53847e-07
-3.80626e-06
-6.21793e-06
2.67745e-06
-1.47989e-05
-1.95931e-06
1.31577e-05
-6.14297e-07
-1.98738e-05
-1.05614e-06
-1.06721e-06
-1.10372e-06
-1.12382e-06
-1.09272e-06
-1.04325e-06
-9.99982e-07
-9.68745e-07
-9.68406e-07
-1.0214e-06
-1.0878e-06
-1.12197e-06
-1.1032e-06
-1.05881e-06
-1.02356e-06
-1.01956e-06
-1.03833e-06
-1.10266e-06
-1.11519e-06
-1.0282e-06
-1.03253e-06
-1.07794e-06
-1.03878e-06
-1.01946e-06
-1.16793e-06
-1.3142e-06
-1.19981e-06
-9.13036e-07
-1.14891e-06
-1.17028e-06
-1.16003e-06
-1.26057e-06
-8.4481e-07
-1.16184e-06
-1.75326e-06
-1.71854e-06
-7.94904e-07
-2.33707e-06
-4.93953e-06
3.30906e-07
-1.87813e-06
-2.64927e-06
-1.58694e-06
-1.40317e-05
2.80972e-06
-2.73392e-05
-4.00729e-06
1.78398e-05
-1.47209e-05
-1.38954e-05
-1.04625e-06
-1.1327e-06
-1.1119e-06
-1.07519e-06
-1.03135e-06
-1.01231e-06
-1.01684e-06
-1.04466e-06
-1.1014e-06
-1.15261e-06
-1.13901e-06
-1.0824e-06
-1.0583e-06
-1.05129e-06
-1.0259e-06
-1.03144e-06
-1.09335e-06
-1.11872e-06
-1.05059e-06
-1.03838e-06
-1.0772e-06
-1.08091e-06
-1.07048e-06
-1.02613e-06
-1.00255e-06
-1.17711e-06
-1.37822e-06
-1.19779e-06
-9.81044e-07
-1.08738e-06
-1.12867e-06
-1.16325e-06
-1.03027e-06
-1.46477e-06
-1.3727e-06
-1.02369e-06
-9.16164e-07
-7.40264e-07
-3.05693e-06
-3.08424e-06
-7.10691e-07
1.98533e-06
-2.47722e-06
-1.73599e-05
-1.49486e-05
-1.60336e-05
-1.58732e-05
1.34025e-05
-2.42972e-06
4.00695e-05
-1.03742e-06
-1.08047e-06
-1.05725e-06
-1.02614e-06
-1.02855e-06
-1.04659e-06
-1.0618e-06
-1.08516e-06
-1.10745e-06
-1.09185e-06
-1.05403e-06
-1.03767e-06
-1.05653e-06
-1.06983e-06
-1.07874e-06
-1.10171e-06
-1.09939e-06
-1.04279e-06
-1.02482e-06
-1.06867e-06
-1.06987e-06
-1.04896e-06
-1.07524e-06
-1.10904e-06
-9.99037e-07
-8.76957e-07
-1.05133e-06
-1.1566e-06
-1.1703e-06
-1.28772e-06
-1.06971e-06
-9.51686e-07
-1.19242e-06
-1.42246e-06
-1.08421e-06
-6.46999e-07
-1.64783e-06
-1.34997e-06
-2.10251e-06
-2.10273e-06
-3.24586e-06
-4.75659e-06
-6.45695e-06
-5.03561e-06
-3.37708e-07
9.9462e-06
-1.44839e-05
5.05826e-06
1.83087e-06
-3.35596e-06
-1.04122e-06
-1.04162e-06
-1.0491e-06
-1.06722e-06
-1.09642e-06
-1.11549e-06
-1.1303e-06
-1.1331e-06
-1.10586e-06
-1.06921e-06
-1.07029e-06
-1.09684e-06
-1.0931e-06
-1.07331e-06
-1.09925e-06
-1.12329e-06
-1.08799e-06
-1.0522e-06
-1.06701e-06
-1.06698e-06
-1.04984e-06
-1.05665e-06
-1.05111e-06
-1.05259e-06
-1.12247e-06
-1.01876e-06
-8.59424e-07
-8.49429e-07
-9.72575e-07
-1.05079e-06
-9.83265e-07
-1.15634e-06
-1.32774e-06
-1.14772e-06
-8.97129e-07
-6.47285e-07
-2.31786e-06
-2.46423e-06
-1.01914e-06
-8.72596e-07
-3.75085e-07
-3.50354e-06
-1.87694e-06
-2.70307e-06
-3.02093e-06
8.6262e-06
-1.7217e-05
-1.89987e-05
-9.75295e-06
-9.27767e-06
-1.03383e-06
-1.08584e-06
-1.09796e-06
-1.11685e-06
-1.11984e-06
-1.11213e-06
-1.10869e-06
-1.09147e-06
-1.0678e-06
-1.06112e-06
-1.07097e-06
-1.07288e-06
-1.06558e-06
-1.07884e-06
-1.09367e-06
-1.08597e-06
-1.0771e-06
-1.09068e-06
-1.10934e-06
-1.09349e-06
-1.09105e-06
-1.081e-06
-1.07073e-06
-1.03035e-06
-1.0673e-06
-1.13455e-06
-1.07907e-06
-1.04463e-06
-8.57481e-07
-7.93753e-07
-9.01296e-07
-1.06009e-06
-1.06647e-06
-8.36305e-07
-1.07888e-06
-1.64878e-06
-1.28798e-06
-1.42997e-06
-9.09353e-07
-5.88943e-07
-3.25549e-07
-3.90185e-06
-3.82655e-06
-6.27886e-06
-8.21401e-06
-7.43529e-06
7.26481e-06
-4.8336e-06
-1.38054e-05
-1.09736e-05
-1.02413e-06
-1.1216e-06
-1.12087e-06
-1.11523e-06
-1.10504e-06
-1.09654e-06
-1.08732e-06
-1.08477e-06
-1.095e-06
-1.11283e-06
-1.12234e-06
-1.12491e-06
-1.12495e-06
-1.12189e-06
-1.10345e-06
-1.08458e-06
-1.10192e-06
-9.69961e-07
-9.96538e-07
-1.1201e-06
-1.15291e-06
-1.15318e-06
-1.16146e-06
-1.16465e-06
-1.12211e-06
-1.03759e-06
-1.06655e-06
-1.17928e-06
-1.21027e-06
-1.09939e-06
-1.08617e-06
-7.72061e-07
-8.05e-07
-8.92088e-07
-1.24485e-06
-1.31798e-06
-9.32942e-07
-9.56681e-07
-1.84749e-06
-1.49015e-06
-1.62736e-06
-8.77758e-07
-1.92281e-06
-1.24687e-06
2.21663e-06
-4.56836e-06
1.8266e-05
2.91595e-06
-1.1047e-05
-3.68864e-05
-0.000629288
0.000132315
2.39085e-05
-3.63261e-05
-8.7007e-05
-0.000102325
-3.28135e-05
-2.11573e-05
-2.07692e-05
-7.6013e-06
-6.43504e-06
1.18912e-07
1.22559e-05
8.49168e-06
1.46699e-06
5.89083e-07
-1.41709e-06
1.18314e-07
9.75438e-07
1.40072e-07
-6.52117e-07
-8.23957e-07
-1.11941e-06
-1.19054e-06
-1.16511e-06
-1.09502e-06
-1.06017e-06
-1.01904e-06
-9.93161e-07
-1.02696e-06
-1.03494e-06
-1.01614e-06
-9.48987e-07
-9.67032e-07
-1.02678e-06
-1.06053e-06
-1.06998e-06
-9.49412e-07
-9.04874e-07
-9.40463e-07
-9.91907e-07
-1.04839e-06
-1.06494e-06
-1.04861e-06
-9.8469e-07
-8.75909e-07
-7.96479e-07
-8.13912e-07
-9.17195e-07
-9.54622e-07
-0.00232245
-0.000855106
-0.000150329
0.000154521
-5.0811e-05
-9.19991e-05
-5.07337e-05
-4.99022e-05
-4.29656e-05
-2.02741e-05
3.05493e-05
3.18506e-05
6.48404e-06
-1.85766e-05
-1.32596e-05
3.475e-06
8.28544e-06
4.03843e-06
1.9616e-06
-3.27731e-07
-9.54085e-07
-1.05772e-06
-1.1643e-06
-1.13038e-06
-1.06727e-06
-1.04569e-06
-1.09104e-06
-1.11342e-06
-1.05169e-06
-1.02572e-06
-1.05773e-06
-1.06886e-06
-1.01628e-06
-9.8687e-07
-9.81874e-07
-1.00725e-06
-1.06406e-06
-1.10169e-06
-9.99463e-07
-9.16713e-07
-9.10865e-07
-9.54566e-07
-1.00816e-06
-1.03514e-06
-1.12501e-06
-1.01008e-06
-9.18984e-07
-8.04776e-07
-7.76067e-07
-8.83948e-07
-0.000893704
4.03672e-05
0.000543475
0.000279056
6.27379e-05
0.000137357
4.06479e-05
-6.87282e-06
6.35925e-05
0.000114971
3.83309e-05
-4.76474e-05
-4.2726e-05
9.71295e-06
2.8667e-05
1.33132e-05
-2.52016e-07
2.61636e-06
5.2834e-06
3.49181e-06
5.34644e-07
-6.58564e-07
-1.11491e-06
-1.30764e-06
-1.44364e-06
-1.39666e-06
-1.25443e-06
-1.05193e-06
-9.77674e-07
-9.533e-07
-1.00568e-06
-1.03334e-06
-1.02611e-06
-9.80463e-07
-9.77373e-07
-9.18608e-07
-9.71042e-07
-1.03531e-06
-1.03866e-06
-1.01409e-06
-9.51051e-07
-9.53244e-07
-9.64296e-07
-9.17973e-07
-1.04899e-06
-1.06081e-06
-1.059e-06
-9.96586e-07
-7.65235e-07
-8.58228e-07
-0.00177051
-0.000285724
0.000641988
0.000512343
0.000377721
0.000190801
5.67573e-05
0.000172325
0.000158731
2.24788e-05
-0.000134122
-2.03696e-05
7.09124e-05
4.33335e-05
-1.90728e-06
-1.16041e-05
1.24296e-05
2.2172e-05
9.30342e-06
3.80259e-06
1.70764e-06
3.94519e-07
-3.69887e-07
-1.00253e-06
-1.44854e-06
-1.57054e-06
-1.45156e-06
-1.21624e-06
-1.07142e-06
-1.02475e-06
-9.48648e-07
-9.64763e-07
-9.9123e-07
-1.02471e-06
-1.00921e-06
-1.02236e-06
-9.66942e-07
-9.50837e-07
-1.01729e-06
-1.06683e-06
-1.00885e-06
-1.03132e-06
-9.9924e-07
-9.63633e-07
-9.25142e-07
-9.74163e-07
-1.02652e-06
-1.0312e-06
-9.85218e-07
-9.05899e-07
-0.0127207
-0.00538042
9.51842e-07
0.00164839
0.00143392
0.000707803
0.000431426
0.000219164
-3.40077e-05
-0.000180932
6.4491e-05
0.000156422
3.21682e-05
-4.77233e-05
-6.87516e-06
1.80317e-05
1.22957e-05
-2.91867e-06
-9.32228e-07
8.98506e-06
6.91437e-06
3.001e-06
1.08724e-06
-2.80807e-07
-1.25842e-06
-1.76142e-06
-1.82511e-06
-1.68024e-06
-1.49739e-06
-1.28197e-06
-1.05367e-06
-9.70745e-07
-9.32094e-07
-9.68889e-07
-9.71762e-07
-1.02396e-06
-1.03268e-06
-9.87e-07
-9.75704e-07
-9.8896e-07
-9.85154e-07
-9.95324e-07
-1.01345e-06
-1.00219e-06
-9.41113e-07
-9.54935e-07
-9.41854e-07
-9.79787e-07
-9.88708e-07
-1.01944e-06
-0.0570658
-0.0370001
-0.00238513
0.0102839
0.0110128
0.00639961
0.00275667
0.000943961
0.000162634
9.61459e-05
0.000186796
-6.75812e-05
-0.000107053
5.27931e-05
1.11257e-05
-5.04486e-05
-3.18687e-05
8.22039e-06
1.18645e-05
4.12222e-06
3.70218e-06
1.8389e-06
4.26865e-06
3.23622e-06
1.76808e-07
-1.37685e-06
-2.24238e-06
-2.81085e-06
-2.69658e-06
-2.20109e-06
-1.61403e-06
-1.07532e-06
-7.90633e-07
-8.38304e-07
-9.03523e-07
-9.41537e-07
-9.92309e-07
-9.71732e-07
-9.70585e-07
-9.961e-07
-9.78507e-07
-9.85295e-07
-9.89298e-07
-1.00302e-06
-9.99724e-07
-9.97966e-07
-9.87883e-07
-9.50715e-07
-9.4349e-07
-9.96914e-07
-0.0222031
-0.0211656
-0.0165389
-0.00272093
0.0399187
0.034087
0.018658
0.00716655
0.00232714
0.000907399
7.78554e-06
-9.48298e-06
0.000183588
-1.14764e-05
-0.000101137
2.13493e-06
3.36964e-05
-1.49281e-05
-5.72609e-05
-0.000105408
-0.000137743
-0.000111327
-4.31147e-05
2.91968e-06
1.84897e-05
1.50436e-05
3.7226e-06
-2.68817e-06
-5.43539e-06
-5.30571e-06
-3.15998e-06
-1.63356e-06
-1.48006e-06
-1.25145e-06
-7.53151e-07
-5.16661e-07
-6.50398e-07
-7.9665e-07
-9.32956e-07
-1.00843e-06
-1.05063e-06
-1.04085e-06
-1.01887e-06
-9.98184e-07
-9.89645e-07
-9.96103e-07
-9.92521e-07
-9.47645e-07
-9.4255e-07
-9.61422e-07
0.0102075
0.000705918
-0.0147205
-0.0208421
-0.0111285
0.0171658
0.0697208
0.0341262
0.0135945
0.00456867
0.00129346
0.000523805
4.60008e-05
-0.000115233
4.90475e-05
-1.29727e-05
-0.000200711
-0.000344532
-0.000725612
-0.00157121
-0.00201168
-0.00144175
-0.000816157
1.20305e-05
0.00037968
0.000414375
0.000254732
0.000115783
3.76977e-05
8.3428e-06
-1.82824e-06
-7.39865e-06
-1.19749e-05
-1.56349e-05
-1.44286e-05
-7.21825e-06
-1.85983e-07
2.18183e-06
1.5306e-06
2.29347e-07
-7.00759e-07
-1.12715e-06
-1.38092e-06
-1.31391e-06
-1.0794e-06
-9.61168e-07
-9.12673e-07
-9.01644e-07
-9.51892e-07
-9.82874e-07
0.0267612
0.0111882
-0.00773261
-0.0252633
-0.0574744
-0.0137062
0.0063889
0.0632034
0.0427126
0.0174506
0.00604227
0.00162614
0.000221965
0.000251477
-3.99294e-05
-0.000400448
-0.000948699
-0.00261776
-0.00666303
-0.0111092
-0.00834376
-0.00511772
-0.00328722
-0.00222513
0.00106728
0.00526371
0.00301347
0.00167497
0.000782043
0.000298649
4.35575e-05
-6.2747e-05
-0.000167919
-0.000372532
-0.000403142
-0.000235892
1.40667e-05
9.71663e-05
0.000100317
6.3605e-05
2.46699e-05
-1.10129e-06
-1.22257e-05
-1.57131e-05
-1.48259e-05
-4.39144e-06
2.51335e-06
3.3712e-06
9.93455e-07
-7.23559e-07
0.0324938
0.0120878
-0.00621383
-0.0178847
-0.0650886
-0.0383437
-0.0105627
0.0121022
0.0594509
0.0420461
0.0183529
0.00544848
0.00175724
0.000408715
-0.000535955
-0.00179913
-0.00649535
-0.0170027
-0.0141592
-0.00626266
-0.0019433
0.000114787
0.000295582
-0.00113086
-0.000711672
0.000467123
0.00403731
0.00879612
0.00489143
0.00209595
0.000290229
-0.000362477
-0.00248423
-0.00397178
-0.00207833
-0.00111244
-0.000710772
0.000683932
0.00168754
0.000975479
0.00037788
-1.28607e-05
-0.000149298
-0.000297571
-0.000309869
-0.000172498
0.000123858
0.000136828
6.06028e-05
8.8754e-06
0.0337795
0.0180487
-0.00576184
-0.0169409
-0.0493214
-0.0512368
-0.0159136
-0.00201444
0.0361321
0.04497
0.0285283
0.0153154
0.00591205
0.000421176
-0.0017891
-0.0110692
-0.0252751
-0.0127857
-0.00334177
0.00424542
0.00953579
0.00311306
-0.00030633
-0.00336359
-0.00562382
-0.00184429
-0.000702418
0.00165818
0.00890297
0.006505
0.000959544
-0.00216232
-0.00655288
-0.00228312
-0.000668327
-0.000428953
-0.000282717
0.000157103
0.00121448
0.00312156
0.00117682
-0.000219017
-0.00107921
-0.00140243
-0.000653394
-0.000439911
1.7372e-05
0.00116843
0.000533566
-1.94254e-05
0.0330378
0.0247358
-0.00429277
-0.0175383
-0.0460634
-0.0448689
-0.0200442
-0.00594149
0.0241285
0.0385929
0.0279784
0.0187122
0.00824993
-0.000366961
-0.00844412
-0.0296469
-0.0161618
-0.00437585
0.00298598
0.0152214
0.00929332
0.00165584
-0.00141621
-0.00949101
-0.00612768
-0.00189465
-0.000415591
0.00392252
0.00856353
0.00212096
-0.000989843
-0.005225
-0.00105759
0.00108152
0.0010654
-0.000262732
-0.000749532
-0.00040289
0.000747451
0.0012519
-0.000226548
-0.000959384
-0.000372397
-0.000148472
7.41163e-05
0.000374304
0.000510754
0.000120151
-0.000199174
-0.000311214
0.0327793
0.028285
0.00151717
-0.0150613
-0.0483565
-0.0447005
-0.0222143
-0.00498602
0.0217104
0.0297328
0.0253122
0.0173705
0.00435845
-0.00232947
-0.0166939
-0.0248046
-0.00995894
-0.00284064
0.00236166
0.0159111
0.0134383
0.0038168
-0.00128977
-0.0113874
-0.00715402
-0.00178683
0.00150434
0.00749529
0.00311692
-0.000371811
-0.00428403
-0.00234483
-0.000117693
0.00311423
0.000940877
-0.000518472
-0.001575
-0.000245104
0.00118485
0.000117538
-0.000410152
-0.000343681
0.000396522
0.000118638
-0.000197886
-0.000105073
0.000149048
-3.31478e-05
-2.40175e-05
2.75246e-05
0.0285023
0.0187471
0.00980783
-0.0117651
-0.0343772
-0.0528125
-0.0278423
-0.00658762
0.0136591
0.0252385
0.0227157
0.0149789
0.00313582
-0.00228817
-0.0152111
-0.0219743
-0.0099859
-0.00327337
-0.000323116
0.0090059
0.0194262
0.0112137
0.00194749
-0.00354029
-0.0136069
-0.00464881
-7.87309e-05
0.00598
0.00212391
-0.000384725
-0.00322017
-0.00184688
-0.000627153
0.00140656
0.00339555
0.000274339
-0.00153927
-0.00114758
-0.000101611
0.000509041
-2.97266e-05
-7.93594e-05
0.000433134
0.000632757
-0.000151527
-0.000513208
-0.00031634
-0.000206902
-8.35444e-06
0.000523516
0.0350976
0.00196408
0.00920552
-0.00522963
-0.0191845
-0.0547228
-0.0366055
-0.0128564
0.000309935
0.0201698
0.0203797
0.0137531
0.00374833
-0.00138295
-0.00764414
-0.0204584
-0.0112121
-0.00390615
-0.00148176
0.00605404
0.0196017
0.0145945
0.00553433
-0.000140741
-0.00492308
-0.0125227
-0.00442947
-0.000527424
0.00148764
0.000191112
-0.000695841
-0.0006022
-0.000129285
0.000876499
0.0047023
0.00278567
1.17485e-05
-0.00183205
-0.00297101
-0.00118268
-0.000581898
-0.000372937
0.000268015
0.00204897
0.00108723
-1.76005e-05
-0.000338305
-0.0007306
-0.000417152
-0.000237004
0.0327848
0.00684667
0.00190445
0.000466878
-0.00584996
-0.021361
-0.0499098
-0.0291803
-0.0117246
-0.00251465
0.0158894
0.0146331
0.00764447
0.000265
-0.0031915
-0.0160801
-0.0066339
-0.00243615
0.00522968
0.0208027
0.0127279
0.00540351
0.00164613
2.96854e-05
-0.000778657
-0.0038598
-0.00914283
-0.00590878
-0.0029034
-0.00152813
-0.00104882
-1.34656e-05
0.00296126
0.00393888
0.00224496
0.000906112
3.47262e-05
-0.00028636
-0.00125888
-0.000981715
-0.000581002
-0.000314824
0.000441741
0.000431898
0.000220855
2.88086e-05
-5.63789e-05
-8.23928e-05
-8.48442e-05
-3.07743e-05
0.0110759
0.00996783
0.00302511
0.00218264
-0.00123556
-0.00472221
-0.0151474
-0.0338027
-0.0291848
-0.0169958
-0.00845533
-0.00432275
0.000169337
-0.00209348
-0.00340541
-0.00225803
0.00174763
0.015024
0.0147752
0.00782498
0.00328267
0.00115567
0.000366963
1.4277e-05
-0.000129903
-0.000423281