/*--------------------------------*- C++ -*----------------------------------*\
| =========                 |                                                 |
| \\      /  F ield         | OpenFOAM: The Open Source CFD Toolbox           |
|  \\    /   O peration     | Version:  2.3.1                                 |
|   \\  /    A nd           | Web:      www.OpenFOAM.org                      |
|    \\/     M anipulation  |                                                 |
\*---------------------------------------------------------------------------*/
FoamFile
{
    version     2.0;
    format      ascii;
    class       volScalarField;
    location    "1000";
    object      ddt0(k);
}
// * * * * * * * * * * * * * * * * * * * * * * * * * * * * * * * * * * * * * //

dimensions      [0 2 -3 0 0 0 0];

internalField   nonuniform List<scalar> 
19300
(
-2.05399e-05
-2.05399e-05
-2.05379e-05
-2.05429e-05
-2.05419e-05
-2.05342e-05
-2.054e-05
-2.05477e-05
-2.05505e-05
-2.05503e-05
-2.05424e-05
-2.05194e-05
-2.05037e-05
-2.04775e-05
-2.04898e-05
-2.05104e-05
-2.05009e-05
-2.05334e-05
-2.05527e-05
-2.05444e-05
-2.0515e-05
-2.04273e-05
-2.04381e-05
-2.0527e-05
-2.06152e-05
-2.0691e-05
-2.09376e-05
-2.10977e-05
-2.10791e-05
-2.091e-05
-2.06997e-05
-2.05261e-05
-2.04401e-05
-2.02801e-05
-2.0203e-05
-2.01259e-05
-1.99618e-05
-1.99505e-05
-1.99395e-05
-2.00099e-05
-2.00179e-05
-2.00625e-05
-2.03111e-05
-2.05471e-05
-2.06691e-05
-2.02991e-05
-2.02328e-05
-2.02471e-05
-2.03027e-05
-2.04364e-05
-2.03798e-05
-2.06072e-05
-2.04488e-05
-2.17228e-05
-2.32828e-05
-2.34184e-05
-2.43776e-05
-2.51837e-05
-2.49142e-05
-2.304e-05
-2.27722e-05
-2.20422e-05
-2.32573e-05
-2.0303e-05
-1.88961e-05
-2.0717e-05
-1.89853e-05
-1.77637e-05
-1.70629e-05
-2.34208e-05
-1.27677e-05
-1.14733e-05
-2.04681e-05
-2.28227e-05
-5.57588e-06
-9.74762e-06
-2.97375e-05
-1.06047e-05
-2.20992e-05
-8.49621e-07
-2.35266e-05
-1.1271e-05
-2.74114e-05
-1.36096e-05
-1.64738e-05
-4.52417e-05
-7.19611e-06
-2.61865e-05
-2.03143e-05
-7.67408e-06
-3.9271e-05
-4.7869e-06
-3.35013e-05
-3.67353e-05
-1.17215e-05
-5.36043e-05
-2.57112e-06
-5.03248e-06
-7.28946e-05
2.97537e-05
-2.05407e-05
-2.05409e-05
-2.05383e-05
-2.05429e-05
-2.05425e-05
-2.05394e-05
-2.05457e-05
-2.05454e-05
-2.05556e-05
-2.05362e-05
-2.05047e-05
-2.048e-05
-2.04633e-05
-2.04512e-05
-2.0454e-05
-2.04679e-05
-2.04857e-05
-2.0518e-05
-2.05284e-05
-2.05228e-05
-2.05214e-05
-2.05421e-05
-2.05429e-05
-2.0553e-05
-2.06305e-05
-2.09121e-05
-2.09716e-05
-2.08922e-05
-2.07159e-05
-2.05346e-05
-2.04519e-05
-2.03416e-05
-2.02409e-05
-2.00961e-05
-2.006e-05
-2.00243e-05
-1.99512e-05
-1.99565e-05
-2.00273e-05
-2.00668e-05
-2.00424e-05
-2.00847e-05
-2.01481e-05
-2.01724e-05
-2.03392e-05
-2.02057e-05
-2.03075e-05
-2.04898e-05
-2.04908e-05
-2.04096e-05
-2.04321e-05
-2.08242e-05
-2.11377e-05
-2.32892e-05
-2.43565e-05
-2.41596e-05
-2.51574e-05
-2.5415e-05
-2.44832e-05
-2.32426e-05
-2.20352e-05
-2.16621e-05
-2.34819e-05
-1.8345e-05
-1.78004e-05
-2.18739e-05
-1.81976e-05
-1.56926e-05
-1.79956e-05
-2.28759e-05
-9.43519e-06
-1.03502e-05
-2.2131e-05
-1.90049e-05
-6.6622e-06
-9.12874e-06
-2.60267e-05
-2.49695e-06
-3.24872e-05
2.26031e-06
-8.23633e-06
-1.46792e-05
-2.75348e-05
-2.0188e-05
-1.6244e-05
-3.63194e-05
-1.22046e-05
-2.93244e-05
-2.86926e-05
-2.94398e-06
-3.81815e-05
-6.03671e-06
-2.98113e-05
-3.69712e-05
-9.9476e-06
-5.19433e-05
-6.606e-06
1.25482e-06
-7.38655e-05
6.60203e-06
-2.05396e-05
-2.05426e-05
-2.05438e-05
-2.05432e-05
-2.0543e-05
-2.05442e-05
-2.05462e-05
-2.05548e-05
-2.05522e-05
-2.05421e-05
-2.05236e-05
-2.04832e-05
-2.04452e-05
-2.04305e-05
-2.04366e-05
-2.04497e-05
-2.04689e-05
-2.0498e-05
-2.05336e-05
-2.05184e-05
-2.05231e-05
-2.05364e-05
-2.05646e-05
-2.05937e-05
-2.06157e-05
-2.07265e-05
-2.11205e-05
-2.12323e-05
-2.11334e-05
-2.08496e-05
-2.05911e-05
-2.03573e-05
-2.02128e-05
-2.00432e-05
-2.00086e-05
-1.99728e-05
-1.98777e-05
-1.97794e-05
-1.99503e-05
-2.00275e-05
-2.00194e-05
-2.0087e-05
-2.02499e-05
-2.03394e-05
-2.05817e-05
-2.02689e-05
-2.02949e-05
-2.04563e-05
-2.05122e-05
-2.06446e-05
-2.02943e-05
-2.09034e-05
-2.11101e-05
-2.26106e-05
-2.44882e-05
-2.43744e-05
-2.5329e-05
-2.55998e-05
-2.53286e-05
-2.37632e-05
-2.19538e-05
-2.15418e-05
-2.45995e-05
-1.80878e-05
-1.72523e-05
-2.22972e-05
-1.86002e-05
-1.44763e-05
-1.73246e-05
-2.35215e-05
-9.73907e-06
-9.44278e-06
-2.15706e-05
-1.98795e-05
-5.11944e-06
-6.82686e-06
-2.96169e-05
1.76139e-06
-2.96321e-05
-4.70479e-06
2.3668e-06
-1.77035e-05
-2.94492e-05
-2.03408e-05
-1.29823e-05
-3.40296e-05
-1.62873e-05
-2.75184e-05
-3.72846e-05
1.42068e-06
-3.68349e-05
-1.36429e-05
-1.43731e-05
-5.06292e-05
-1.19787e-07
-3.80546e-05
-3.74008e-05
1.71212e-05
-6.00795e-05
-1.5841e-05
-2.05345e-05
-2.05427e-05
-2.05451e-05
-2.05424e-05
-2.05411e-05
-2.0548e-05
-2.05529e-05
-2.05623e-05
-2.05685e-05
-2.0531e-05
-2.05054e-05
-2.0486e-05
-2.04294e-05
-2.03622e-05
-2.04057e-05
-2.04507e-05
-2.0477e-05
-2.04996e-05
-2.05249e-05
-2.0521e-05
-2.05139e-05
-2.05045e-05
-2.05049e-05
-2.05385e-05
-2.06305e-05
-2.09153e-05
-2.14108e-05
-2.13252e-05
-2.11341e-05
-2.08397e-05
-2.0561e-05
-2.0287e-05
-2.01493e-05
-1.99831e-05
-1.99437e-05
-1.98801e-05
-1.97115e-05
-1.97095e-05
-1.97866e-05
-1.98499e-05
-1.98443e-05
-1.99158e-05
-2.01245e-05
-2.01555e-05
-2.04585e-05
-2.02349e-05
-2.02516e-05
-2.037e-05
-2.04648e-05
-2.1108e-05
-2.0218e-05
-2.03462e-05
-2.165e-05
-2.24361e-05
-2.33466e-05
-2.36907e-05
-2.57345e-05
-2.60333e-05
-2.56e-05
-2.37072e-05
-2.23625e-05
-2.03307e-05
-2.62279e-05
-1.80862e-05
-1.63284e-05
-2.04132e-05
-2.01323e-05
-1.37801e-05
-1.48163e-05
-1.95115e-05
-1.3927e-05
-8.61765e-06
-1.82494e-05
-2.25359e-05
1.1765e-06
3.17767e-07
-2.58196e-05
-1.20148e-05
-3.42383e-05
-1.15828e-05
-7.65344e-06
-1.85561e-05
-2.50221e-05
-2.12607e-05
-9.62266e-06
-1.99993e-05
-1.89397e-05
-1.95692e-05
-4.08987e-05
-2.86669e-06
-2.77964e-05
-3.19696e-05
-1.0196e-05
-5.44838e-05
-5.71733e-06
-3.1574e-05
-4.83712e-05
1.7283e-05
-5.51169e-05
-2.31355e-05
-2.05336e-05
-2.05377e-05
-2.05396e-05
-2.05411e-05
-2.05391e-05
-2.05435e-05
-2.05622e-05
-2.06059e-05
-2.0588e-05
-2.05301e-05
-2.047e-05
-2.04358e-05
-2.04123e-05
-2.03306e-05
-2.03634e-05
-2.04098e-05
-2.04313e-05
-2.04505e-05
-2.051e-05
-2.05689e-05
-2.05098e-05
-2.04595e-05
-2.04464e-05
-2.04966e-05
-2.0624e-05
-2.09709e-05
-2.15032e-05
-2.14333e-05
-2.12011e-05
-2.08726e-05
-2.05814e-05
-2.0266e-05
-2.01111e-05
-1.99495e-05
-1.99106e-05
-1.98414e-05
-1.96227e-05
-1.96847e-05
-1.97332e-05
-1.97364e-05
-1.97736e-05
-1.98514e-05
-2.00244e-05
-2.00504e-05
-2.04568e-05
-2.02361e-05
-2.02894e-05
-2.04073e-05
-2.00639e-05
-2.08708e-05
-2.09338e-05
-2.07153e-05
-2.15654e-05
-2.24742e-05
-2.38974e-05
-2.36742e-05
-2.41648e-05
-2.6387e-05
-2.5881e-05
-2.3738e-05
-2.46004e-05
-1.91007e-05
-2.3179e-05
-2.47523e-05
-1.93652e-05
-1.78411e-05
-2.03148e-05
-2.02002e-05
-1.85681e-05
-1.5446e-05
-1.55087e-05
-1.53605e-05
-1.38678e-05
-3.1442e-05
-1.32276e-05
-3.21535e-06
-1.52123e-05
-1.98548e-05
-3.17506e-05
-2.16726e-05
-5.47473e-06
-2.14728e-05
-2.40085e-05
-2.19784e-05
-9.08773e-06
-1.59022e-05
-1.33067e-05
-9.84065e-06
-3.35625e-05
-1.40686e-05
-2.32155e-05
-4.19769e-05
-3.10366e-08
-5.64415e-05
-1.22232e-05
-1.08914e-05
-6.28926e-05
6.98603e-06
-3.80734e-05
-3.4656e-05
-2.05319e-05
-2.05387e-05
-2.05405e-05
-2.05416e-05
-2.05429e-05
-2.05479e-05
-2.0566e-05
-2.06212e-05
-2.06051e-05
-2.05349e-05
-2.04564e-05
-2.04178e-05
-2.03857e-05
-2.0295e-05
-2.03398e-05
-2.03957e-05
-2.04333e-05
-2.04474e-05
-2.04833e-05
-2.05547e-05
-2.05346e-05
-2.05e-05
-2.04805e-05
-2.05099e-05
-2.0595e-05
-2.08229e-05
-2.158e-05
-2.1672e-05
-2.14154e-05
-2.09942e-05
-2.058e-05
-2.02681e-05
-2.00452e-05
-1.98636e-05
-1.9774e-05
-1.97001e-05
-1.96119e-05
-1.95668e-05
-1.96149e-05
-1.95888e-05
-1.96324e-05
-1.97387e-05
-1.99747e-05
-1.99317e-05
-2.0392e-05
-2.03408e-05
-2.03029e-05
-2.0714e-05
-1.99698e-05
-2.04183e-05
-2.116e-05
-2.083e-05
-2.14364e-05
-2.25481e-05
-2.39133e-05
-2.35187e-05
-2.51354e-05
-2.61092e-05
-2.39695e-05
-2.4108e-05
-2.69291e-05
-2.12526e-05
-2.25294e-05
-2.44835e-05
-2.02663e-05
-2.00877e-05
-1.90128e-05
-1.74421e-05
-1.97395e-05
-2.3322e-05
-1.06099e-05
-1.3175e-05
-1.18166e-05
-1.98011e-05
-2.49208e-05
3.917e-06
-9.82141e-06
-1.47922e-05
-6.8011e-06
-2.36735e-05
-4.13217e-06
-1.31744e-06
-1.00179e-05
-2.42802e-05
-1.55491e-05
-1.01004e-05
-2.10704e-05
-5.83631e-06
-2.66939e-05
-2.07552e-05
-1.35264e-05
-4.81703e-05
-3.99179e-06
-4.16154e-05
-2.35955e-05
-3.33297e-06
-5.92808e-05
4.83197e-06
-3.24958e-05
-3.79382e-05
-2.05345e-05
-2.0539e-05
-2.05385e-05
-2.054e-05
-2.05392e-05
-2.05453e-05
-2.05814e-05
-2.06723e-05
-2.06451e-05
-2.05419e-05
-2.0428e-05
-2.03727e-05
-2.03418e-05
-2.02504e-05
-2.02971e-05
-2.03551e-05
-2.03875e-05
-2.04141e-05
-2.05062e-05
-2.05657e-05
-2.05298e-05
-2.04823e-05
-2.04487e-05
-2.04629e-05
-2.05759e-05
-2.0883e-05
-2.1647e-05
-2.18217e-05
-2.1544e-05
-2.10772e-05
-2.05874e-05
-2.03046e-05
-1.99938e-05
-1.9843e-05
-1.97235e-05
-1.965e-05
-1.95577e-05
-1.95224e-05
-1.95493e-05
-1.95064e-05
-1.95342e-05
-1.9644e-05
-1.99808e-05
-1.98732e-05
-2.01729e-05
-2.05699e-05
-2.04328e-05
-2.05614e-05
-1.98853e-05
-2.03493e-05
-2.18525e-05
-2.02032e-05
-2.08987e-05
-2.39389e-05
-2.48254e-05
-2.17278e-05
-2.50814e-05
-2.78046e-05
-2.37309e-05
-2.28458e-05
-2.42453e-05
-1.95859e-05
-2.35042e-05
-2.55975e-05
-1.88876e-05
-2.46694e-05
-1.66006e-05
-9.4944e-06
-2.41832e-05
-2.15831e-05
-1.77983e-05
-8.94821e-06
-1.1967e-05
-2.10781e-06
-1.86503e-05
-3.09466e-05
-2.44592e-06
8.92444e-06
-2.58481e-05
-2.16783e-05
-6.07448e-06
-5.65104e-06
-8.27757e-06
-2.92134e-05
-3.30942e-05
-2.71615e-05
-3.34551e-05
-8.75818e-06
-2.28594e-05
-2.80135e-05
-8.81237e-06
-4.84691e-05
-1.25156e-05
-3.51118e-05
-2.76381e-05
8.98579e-06
-6.16933e-05
-5.11289e-06
-5.85923e-06
-4.89811e-05
-2.05394e-05
-2.05405e-05
-2.05399e-05
-2.05385e-05
-2.05397e-05
-2.05486e-05
-2.058e-05
-2.06951e-05
-2.06723e-05
-2.05486e-05
-2.04186e-05
-2.0357e-05
-2.03113e-05
-2.02072e-05
-2.02782e-05
-2.03476e-05
-2.03789e-05
-2.04011e-05
-2.04777e-05
-2.05815e-05
-2.05355e-05
-2.04792e-05
-2.04489e-05
-2.04566e-05
-2.05604e-05
-2.08902e-05
-2.15726e-05
-2.19441e-05
-2.16124e-05
-2.1154e-05
-2.06346e-05
-2.03374e-05
-1.99552e-05
-1.98344e-05
-1.97123e-05
-1.96084e-05
-1.94974e-05
-1.94725e-05
-1.9505e-05
-1.94593e-05
-1.94655e-05
-1.9581e-05
-2.00135e-05
-2.00704e-05
-2.02323e-05
-2.03355e-05
-2.02243e-05
-2.08391e-05
-1.99957e-05
-1.99928e-05
-2.15026e-05
-2.03913e-05
-2.04302e-05
-2.23516e-05
-2.47538e-05
-2.35944e-05
-2.39226e-05
-2.68142e-05
-2.58519e-05
-2.56106e-05
-2.40357e-05
-2.07735e-05
-2.56837e-05
-2.09613e-05
-1.77812e-05
-2.66092e-05
-2.08259e-05
-1.33232e-05
-2.03393e-05
-1.51539e-05
-1.73848e-05
-2.18946e-05
-1.86805e-05
-6.76758e-06
-8.20313e-06
-2.41135e-05
-2.44096e-05
-1.40171e-05
-4.74037e-06
-1.28114e-05
-1.0884e-05
-1.02428e-05
-7.08779e-06
-2.70444e-05
-3.36704e-05
-2.5708e-05
-3.84518e-05
-9.1696e-06
-1.90368e-05
-3.29243e-05
-1.01674e-05
-4.40333e-05
-2.3035e-05
-2.6211e-05
-2.81506e-05
3.63136e-06
-5.10483e-05
-9.04039e-06
-8.83907e-06
-4.51348e-05
-2.05374e-05
-2.05337e-05
-2.05284e-05
-2.05253e-05
-2.0525e-05
-2.05388e-05
-2.05869e-05
-2.07567e-05
-2.07235e-05
-2.05582e-05
-2.04002e-05
-2.03229e-05
-2.02761e-05
-2.01661e-05
-2.02459e-05
-2.03166e-05
-2.03447e-05
-2.03929e-05
-2.05492e-05
-2.05721e-05
-2.05426e-05
-2.04805e-05
-2.04234e-05
-2.04209e-05
-2.05284e-05
-2.08243e-05
-2.15981e-05
-2.18871e-05
-2.17432e-05
-2.12287e-05
-2.06313e-05
-2.04213e-05
-2.00178e-05
-1.98482e-05
-1.97099e-05
-1.95615e-05
-1.94852e-05
-1.94826e-05
-1.94058e-05
-1.93987e-05
-1.94743e-05
-1.95852e-05
-1.98166e-05
-1.99924e-05
-2.03021e-05
-2.03822e-05
-2.04321e-05
-2.04722e-05
-2.08361e-05
-1.99567e-05
-2.14602e-05
-2.06722e-05
-2.07209e-05
-2.13103e-05
-2.21253e-05
-2.41632e-05
-2.44856e-05
-2.42769e-05
-2.45326e-05
-2.56228e-05
-2.42142e-05
-2.46817e-05
-2.18652e-05
-2.14692e-05
-2.13302e-05
-2.38709e-05
-1.95208e-05
-1.47678e-05
-2.44353e-05
-1.39859e-05
-1.18435e-05
-2.42844e-05
-1.94893e-05
-1.00856e-05
1.58058e-06
-2.89255e-05
-2.19641e-05
-5.43767e-06
-4.08054e-06
-2.39564e-05
-1.69676e-05
-2.1903e-05
-5.15211e-06
-1.26298e-05
-2.40299e-05
-1.40409e-05
-4.10182e-05
-1.65955e-05
-1.45534e-05
-3.46893e-05
-1.22089e-05
-4.27444e-05
-2.69568e-05
-3.34223e-05
-2.73299e-05
8.84904e-06
-4.53778e-05
-1.44899e-05
-1.29101e-05
-3.57348e-05
-2.0536e-05
-2.05293e-05
-2.05239e-05
-2.05208e-05
-2.05227e-05
-2.05343e-05
-2.05757e-05
-2.07549e-05
-2.07798e-05
-2.05707e-05
-2.03969e-05
-2.03124e-05
-2.02466e-05
-2.01363e-05
-2.02427e-05
-2.03149e-05
-2.03364e-05
-2.03863e-05
-2.05463e-05
-2.05895e-05
-2.0548e-05
-2.04884e-05
-2.04086e-05
-2.04094e-05
-2.05164e-05
-2.08006e-05
-2.15703e-05
-2.18575e-05
-2.1758e-05
-2.12788e-05
-2.06605e-05
-2.04154e-05
-2.00663e-05
-1.99169e-05
-1.97181e-05
-1.95424e-05
-1.94507e-05
-1.9447e-05
-1.94235e-05
-1.94148e-05
-1.94848e-05
-1.96322e-05
-1.99958e-05
-2.02199e-05
-2.02159e-05
-2.01918e-05
-2.02721e-05
-2.01732e-05
-2.13535e-05
-2.01204e-05
-2.026e-05
-2.10176e-05
-2.13506e-05
-2.20644e-05
-2.19267e-05
-2.26262e-05
-2.35947e-05
-2.56221e-05
-2.51974e-05
-2.33179e-05
-2.31693e-05
-2.61281e-05
-2.0993e-05
-2.1983e-05
-2.47358e-05
-1.57068e-05
-2.95587e-05
-2.1414e-05
-1.00677e-05
-3.01168e-05
-8.38001e-06
-9.1702e-06
-1.92388e-05
-2.30169e-05
-7.90079e-06
-3.04078e-06
-3.35629e-05
-3.33988e-06
-4.1862e-06
-2.77499e-05
-2.13546e-05
-2.70375e-05
-9.19309e-06
-1.21172e-05
-2.42013e-05
-1.07401e-05
-3.96485e-05
-2.1228e-05
-1.18511e-05
-3.53367e-05
-1.4561e-05
-4.1566e-05
-3.16367e-05
-3.46017e-05
-2.94306e-05
7.44351e-07
-3.49156e-05
-1.02741e-05
-1.22344e-05
-4.65639e-05
-2.0529e-05
-2.05222e-05
-2.05085e-05
-2.04999e-05
-2.05037e-05
-2.05187e-05
-2.05632e-05
-2.07594e-05
-2.08303e-05
-2.05787e-05
-2.03823e-05
-2.02959e-05
-2.02365e-05
-2.01523e-05
-2.02446e-05
-2.02971e-05
-2.03262e-05
-2.04213e-05
-2.06435e-05
-2.06092e-05
-2.05372e-05
-2.04611e-05
-2.03847e-05
-2.0346e-05
-2.04486e-05
-2.07664e-05
-2.13903e-05
-2.17255e-05
-2.17041e-05
-2.13198e-05
-2.07434e-05
-2.0491e-05
-2.01101e-05
-2.00033e-05
-1.98708e-05
-1.95819e-05
-1.94989e-05
-1.94723e-05
-1.93341e-05
-1.93923e-05
-1.97884e-05
-1.96791e-05
-1.98022e-05
-2.03663e-05
-2.06347e-05
-2.05736e-05
-2.02689e-05
-1.99312e-05
-2.02408e-05
-2.07917e-05
-2.08133e-05
-2.10451e-05
-2.07786e-05
-2.10827e-05
-2.20773e-05
-2.31848e-05
-2.26909e-05
-2.30563e-05
-2.47069e-05
-2.4382e-05
-2.37926e-05
-2.25435e-05
-2.21135e-05
-2.45013e-05
-2.01495e-05
-2.06952e-05
-2.06882e-05
-3.05212e-05
-6.96478e-06
-1.00229e-05
-2.45569e-05
-2.45259e-05
-2.13217e-05
-8.70948e-06
-2.0168e-05
-1.09818e-05
-2.41866e-05
-1.41504e-05
8.04535e-07
-1.17923e-05
-1.06185e-05
-2.51365e-05
-8.93172e-06
-8.1295e-06
-2.13042e-05
-6.06974e-06
-3.65452e-05
-2.36942e-05
-9.81813e-06
-3.18162e-05
-1.69518e-05
-3.53764e-05
-3.73711e-05
-3.22224e-05
-3.47416e-05
-5.37663e-06
-2.21069e-05
-2.18328e-05
-7.03679e-06
-4.99632e-05
-2.05295e-05
-2.0522e-05
-2.04961e-05
-2.04905e-05
-2.04923e-05
-2.0507e-05
-2.05496e-05
-2.07161e-05
-2.08831e-05
-2.05949e-05
-2.03794e-05
-2.02927e-05
-2.02163e-05
-2.01703e-05
-2.02608e-05
-2.02919e-05
-2.03234e-05
-2.04391e-05
-2.0683e-05
-2.06282e-05
-2.05281e-05
-2.04316e-05
-2.03674e-05
-2.03188e-05
-2.04069e-05
-2.07347e-05
-2.12857e-05
-2.15494e-05
-2.16489e-05
-2.14255e-05
-2.07625e-05
-2.05046e-05
-2.01803e-05
-2.00558e-05
-1.99629e-05
-1.96046e-05
-1.94872e-05
-1.9596e-05
-1.94571e-05
-1.93754e-05
-1.96607e-05
-2.0269e-05
-2.02954e-05
-2.01272e-05
-2.01836e-05
-2.05738e-05
-2.0638e-05
-2.03282e-05
-2.0235e-05
-2.04629e-05
-2.05084e-05
-2.14502e-05
-2.07397e-05
-2.06676e-05
-2.21985e-05
-2.28649e-05
-2.21751e-05
-2.11e-05
-2.28245e-05
-2.56789e-05
-2.47514e-05
-2.20663e-05
-2.11897e-05
-2.68431e-05
-1.55413e-05
-2.19835e-05
-2.15682e-05
-2.04122e-05
-2.29852e-05
-1.73632e-05
-1.44633e-05
-1.69055e-05
-3.60807e-05
-5.99888e-06
-4.66019e-06
-1.22135e-05
-4.23753e-05
-2.41282e-05
2.59876e-06
-1.19077e-05
-1.44311e-05
-2.84118e-05
-1.7909e-05
-7.91486e-06
-2.33042e-05
-8.23442e-06
-3.33624e-05
-3.12513e-05
-1.38883e-05
-2.78746e-05
-2.23819e-05
-2.48023e-05
-4.33713e-05
-3.39465e-05
-3.12524e-05
-2.12316e-05
-1.06055e-05
-3.01716e-05
-8.16501e-06
-3.83004e-05
-2.05246e-05
-2.05108e-05
-2.04875e-05
-2.04611e-05
-2.04696e-05
-2.04853e-05
-2.05283e-05
-2.06874e-05
-2.08985e-05
-2.06076e-05
-2.03818e-05
-2.02987e-05
-2.02529e-05
-2.02309e-05
-2.02789e-05
-2.03007e-05
-2.03784e-05
-2.06357e-05
-2.07542e-05
-2.06128e-05
-2.05025e-05
-2.03938e-05
-2.03274e-05
-2.02626e-05
-2.0314e-05
-2.05355e-05
-2.10904e-05
-2.13559e-05
-2.13518e-05
-2.13145e-05
-2.08918e-05
-2.06453e-05
-2.03001e-05
-2.00442e-05
-2.01098e-05
-1.97962e-05
-1.95916e-05
-1.96703e-05
-1.97912e-05
-1.95092e-05
-1.97652e-05
-2.0505e-05
-2.05588e-05
-2.05887e-05
-2.03089e-05
-2.08123e-05
-2.06297e-05
-2.00028e-05
-1.99709e-05
-2.10478e-05
-1.97138e-05
-2.03245e-05
-2.13476e-05
-2.09476e-05
-2.05006e-05
-2.11305e-05
-2.31473e-05
-2.0634e-05
-2.39633e-05
-2.31254e-05
-2.29036e-05
-2.28698e-05
-1.89806e-05
-3.04649e-05
-1.86191e-05
-1.60395e-05
-1.97183e-05
-1.84332e-05
-3.59282e-05
-1.3348e-05
-6.73702e-06
-1.97265e-05
-2.98353e-05
-1.82376e-05
-1.58448e-05
-9.22679e-06
-1.02706e-05
-2.52969e-05
-1.87475e-05
-2.009e-05
-1.08503e-05
-2.17024e-05
-1.70654e-05
-7.75928e-06
-2.49345e-05
-1.43561e-05
-3.38001e-05
-3.53074e-05
-1.90323e-05
-2.44697e-05
-2.72501e-05
-2.25562e-05
-4.07393e-05
-3.42994e-05
-2.7606e-05
-3.06031e-05
9.18441e-07
-4.1962e-05
-1.09607e-05
-1.80082e-06
-2.05174e-05
-2.05094e-05
-2.04762e-05
-2.0434e-05
-2.04557e-05
-2.04689e-05
-2.05074e-05
-2.06398e-05
-2.08907e-05
-2.06264e-05
-2.0393e-05
-2.03061e-05
-2.02723e-05
-2.02803e-05
-2.02907e-05
-2.03267e-05
-2.04391e-05
-2.07863e-05
-2.0777e-05
-2.05971e-05
-2.04796e-05
-2.0362e-05
-2.02961e-05
-2.02404e-05
-2.02241e-05
-2.03788e-05
-2.08731e-05
-2.12935e-05
-2.12752e-05
-2.12096e-05
-2.09154e-05
-2.05887e-05
-2.05553e-05
-2.00123e-05
-1.99602e-05
-2.00267e-05
-1.99549e-05
-1.97215e-05
-1.97855e-05
-2.00408e-05
-2.01405e-05
-2.07873e-05
-2.00294e-05
-2.03156e-05
-2.13633e-05
-2.10948e-05
-2.0328e-05
-2.02375e-05
-2.0476e-05
-2.0501e-05
-1.98634e-05
-1.96468e-05
-1.98649e-05
-2.01643e-05
-2.0415e-05
-2.06927e-05
-2.15632e-05
-2.1708e-05
-2.292e-05
-2.31143e-05
-2.16405e-05
-2.22657e-05
-2.40679e-05
-1.59353e-05
-3.09631e-05
-1.91829e-05
-1.46082e-05
-1.59493e-05
-2.2387e-05
-2.37416e-05
-1.88921e-05
-1.50874e-05
-1.58309e-05
-2.14365e-05
-2.28159e-05
-1.87793e-05
-1.52513e-05
-1.25582e-05
-1.57306e-05
-2.4161e-05
-1.53705e-05
-1.76063e-05
-1.52251e-05
-5.32618e-06
-2.40709e-05
-1.9956e-05
-3.38465e-05
-3.66792e-05
-2.57105e-05
-2.38717e-05
-2.91117e-05
-2.6028e-05
-2.86244e-05
-4.07012e-05
-2.23692e-05
-3.54662e-05
-2.1931e-06
-2.99874e-05
-2.98708e-05
6.25854e-07
-2.051e-05
-2.05054e-05
-2.04629e-05
-2.04107e-05
-2.04299e-05
-2.04528e-05
-2.04853e-05
-2.0592e-05
-2.08516e-05
-2.06394e-05
-2.04243e-05
-2.03349e-05
-2.03179e-05
-2.03178e-05
-2.03296e-05
-2.03729e-05
-2.05251e-05
-2.09138e-05
-2.08442e-05
-2.0579e-05
-2.04358e-05
-2.03487e-05
-2.0205e-05
-2.01768e-05
-2.01734e-05
-2.02605e-05
-2.06104e-05
-2.10956e-05
-2.11625e-05
-2.09383e-05
-2.10642e-05
-2.06195e-05
-2.05065e-05
-2.02865e-05
-2.01387e-05
-1.99473e-05
-1.99654e-05
-2.00362e-05
-2.01219e-05
-2.06028e-05
-2.01449e-05
-2.0525e-05
-2.15695e-05
-2.07322e-05
-2.04079e-05
-2.14175e-05
-2.03858e-05
-2.0292e-05
-2.03702e-05
-2.02374e-05
-1.96332e-05
-1.94435e-05
-1.97515e-05
-1.99835e-05
-1.95749e-05
-1.97767e-05
-2.09494e-05
-2.12159e-05
-2.39382e-05
-1.77429e-05
-2.06413e-05
-2.66692e-05
-2.39009e-05
-1.78866e-05
-1.86856e-05
-2.46777e-05
-1.99405e-05
-1.58804e-05
-2.58759e-05
-1.9967e-05
-1.23537e-05
-1.98419e-05
-2.32733e-05
-1.62452e-05
-1.53916e-05
-3.37399e-05
-1.34135e-05
-7.08732e-06
-7.11766e-06
-2.17475e-05
-2.02656e-05
-2.15371e-05
-1.94018e-05
-1.42773e-05
-1.90967e-05
-1.80379e-05
-3.33248e-05
-3.31248e-05
-2.80657e-05
-2.71269e-05
-2.78235e-05
-2.73186e-05
-2.31276e-05
-4.00509e-05
-1.8046e-05
-3.57363e-05
-5.8507e-06
-2.77611e-05
-3.7832e-05
-1.38358e-07
-2.05021e-05
-2.05022e-05
-2.04501e-05
-2.04011e-05
-2.03887e-05
-2.04432e-05
-2.04676e-05
-2.05488e-05
-2.07935e-05
-2.06437e-05
-2.04571e-05
-2.03709e-05
-2.03523e-05
-2.03525e-05
-2.03754e-05
-2.04395e-05
-2.06721e-05
-2.10444e-05
-2.0873e-05
-2.05323e-05
-2.04136e-05
-2.02517e-05
-2.01716e-05
-2.01375e-05
-2.01123e-05
-2.01793e-05
-2.03597e-05
-2.08675e-05
-2.09895e-05
-2.09094e-05
-2.08629e-05
-2.08217e-05
-2.04836e-05
-2.04153e-05
-2.02028e-05
-2.01454e-05
-2.00787e-05
-2.0144e-05
-2.03461e-05
-2.05224e-05
-2.09719e-05
-2.11437e-05
-2.19008e-05
-2.06315e-05
-2.08368e-05
-2.12812e-05
-2.07757e-05
-2.00052e-05
-1.99017e-05
-1.96965e-05
-1.96956e-05
-1.95155e-05
-1.9426e-05
-1.96518e-05
-1.9808e-05
-2.01333e-05
-1.83838e-05
-2.2888e-05
-1.94391e-05
-1.85052e-05
-2.31832e-05
-2.04689e-05
-1.595e-05
-3.03189e-05
-1.9442e-05
-1.73725e-05
-2.01513e-05
-2.41333e-05
-1.97043e-05
-1.94673e-05
-1.88039e-05
-1.72173e-05
-1.679e-05
-1.98363e-05
-1.88154e-05
-1.35746e-05
-3.80518e-05
-2.32357e-05
-6.16072e-06
-1.13958e-05
-1.8704e-05
-3.34577e-05
-2.92971e-05
-3.77405e-05
-6.27315e-06
-2.64682e-05
-1.02494e-05
-2.34772e-05
-3.84488e-05
-2.04099e-05
-4.75522e-05
-1.89904e-05
-3.11961e-05
-1.31087e-05
-2.56672e-05
-2.56664e-05
-1.95981e-05
-2.57826e-05
-4.15257e-05
-3.42403e-05
-2.04949e-05
-2.04991e-05
-2.04409e-05
-2.03947e-05
-2.03545e-05
-2.04311e-05
-2.04558e-05
-2.05191e-05
-2.0728e-05
-2.06392e-05
-2.04838e-05
-2.04052e-05
-2.03804e-05
-2.03793e-05
-2.04143e-05
-2.05047e-05
-2.08505e-05
-2.11729e-05
-2.08349e-05
-2.05528e-05
-2.03426e-05
-2.01763e-05
-2.01678e-05
-2.00669e-05
-2.00589e-05
-2.00984e-05
-2.0225e-05
-2.0574e-05
-2.06661e-05
-2.10114e-05
-2.08456e-05
-2.0685e-05
-2.0544e-05
-2.05268e-05
-2.03229e-05
-2.02703e-05
-2.02364e-05
-2.03402e-05
-2.06547e-05
-2.08977e-05
-2.13494e-05
-2.14743e-05
-2.15958e-05
-2.15126e-05
-2.13338e-05
-2.06107e-05
-2.1585e-05
-1.96314e-05
-1.91875e-05
-1.96527e-05
-2.01386e-05
-1.90433e-05
-1.88445e-05
-1.89077e-05
-1.94021e-05
-1.94959e-05
-1.91967e-05
-2.15349e-05
-1.60756e-05
-1.8523e-05
-2.59993e-05
-1.73134e-05
-2.15532e-05
-2.4229e-05
-1.76064e-05
-2.14681e-05
-2.28389e-05
-2.58997e-05
-6.00083e-06
-1.80075e-05
-3.19285e-05
-1.98377e-05
-1.13798e-05
-1.62449e-05
-2.26228e-05
-1.77334e-05
-4.1422e-05
-2.20167e-05
2.13571e-07
-7.99866e-06
-2.57685e-05
-3.71383e-05
-2.49045e-05
-3.04911e-05
-2.33638e-06
-3.30567e-05
-1.32555e-05
-3.10665e-05
-3.83706e-05
-1.66195e-05
-4.61268e-05
-1.27968e-05
-3.03698e-05
-1.12351e-05
-2.98957e-05
-2.84556e-05
-1.90462e-05
-2.94667e-05
-4.88417e-05
-2.76387e-05
-2.04903e-05
-2.04959e-05
-2.04358e-05
-2.03954e-05
-2.03302e-05
-2.04138e-05
-2.04453e-05
-2.04931e-05
-2.06638e-05
-2.06198e-05
-2.05059e-05
-2.04389e-05
-2.04131e-05
-2.04098e-05
-2.04555e-05
-2.05726e-05
-2.09994e-05
-2.12023e-05
-2.08462e-05
-2.05449e-05
-2.02796e-05
-2.01758e-05
-2.0114e-05
-2.00325e-05
-2.0033e-05
-2.00501e-05
-2.01344e-05
-2.03593e-05
-2.05486e-05
-2.09748e-05
-2.07041e-05
-2.06408e-05
-2.06344e-05
-2.04807e-05
-2.02593e-05
-2.0442e-05
-2.04995e-05
-2.05571e-05
-2.08665e-05
-2.1382e-05
-2.16397e-05
-2.18378e-05
-2.17601e-05
-2.18924e-05
-2.10288e-05
-2.08604e-05
-2.07232e-05
-1.94024e-05
-2.06457e-05
-1.97317e-05
-1.85493e-05
-1.87206e-05
-1.96868e-05
-1.85247e-05
-1.82342e-05
-1.81562e-05
-1.90903e-05
-1.94581e-05
-1.90813e-05
-1.99329e-05
-2.01386e-05
-2.01302e-05
-2.07562e-05
-1.92497e-05
-1.98483e-05
-2.09778e-05
-1.98508e-05
-2.30708e-05
-1.85434e-05
-2.15852e-05
-2.22669e-05
-2.19646e-05
-6.21729e-06
-3.0244e-05
-3.37084e-05
3.86074e-06
-2.17985e-05
-3.34748e-05
-1.23566e-05
-2.40645e-05
-2.63076e-05
-2.97985e-05
-1.86384e-05
-2.31143e-05
-7.07856e-06
-3.67858e-05
-1.71599e-05
-3.78072e-05
-2.90805e-05
-1.85369e-05
-4.38739e-05
-6.42165e-06
-3.19403e-05
-2.06458e-05
-2.96924e-05
-3.37384e-05
-1.57259e-05
-3.46627e-05
-6.06889e-05
-8.40628e-06
-2.04841e-05
-2.04916e-05
-2.04363e-05
-2.03965e-05
-2.03134e-05
-2.04015e-05
-2.04468e-05
-2.04714e-05
-2.05601e-05
-2.06232e-05
-2.05397e-05
-2.04846e-05
-2.04582e-05
-2.04547e-05
-2.0511e-05
-2.06581e-05
-2.11635e-05
-2.12315e-05
-2.08748e-05
-2.05097e-05
-2.02145e-05
-2.01273e-05
-2.00439e-05
-2.00034e-05
-2.00115e-05
-2.00148e-05
-2.0034e-05
-2.01185e-05
-2.03637e-05
-2.08057e-05
-2.07024e-05
-2.07116e-05
-2.05927e-05
-2.04929e-05
-2.04403e-05
-2.04629e-05
-2.04877e-05
-2.0703e-05
-2.1128e-05
-2.18456e-05
-2.22648e-05
-2.20715e-05
-2.21118e-05
-2.19355e-05
-2.0944e-05
-2.1405e-05
-2.0071e-05
-1.96947e-05
-2.04604e-05
-1.93226e-05
-1.82269e-05
-1.86756e-05
-1.98808e-05
-1.73212e-05
-1.77164e-05
-1.83338e-05
-2.02562e-05
-1.86145e-05
-1.83883e-05
-1.79862e-05
-1.87597e-05
-2.21415e-05
-1.81558e-05
-1.64304e-05
-2.65049e-05
-1.48728e-05
-1.56122e-05
-2.24178e-05
-2.38534e-05
-1.97071e-05
-1.77506e-05
-2.17903e-05
-2.06715e-05
-2.4679e-05
-2.39933e-05
-1.44696e-05
-1.76414e-05
-3.13841e-05
-3.10041e-05
-3.50679e-05
-1.94494e-05
-1.20625e-05
-7.34918e-06
-2.00458e-05
-1.96429e-05
-4.03807e-05
-2.20474e-05
-4.05939e-05
-2.09636e-05
-2.22932e-05
-4.22877e-05
-2.68568e-07
-3.96961e-05
-2.54678e-05
-2.4026e-05
-4.24421e-05
-7.22605e-06
-4.72457e-05
-5.30831e-05
1.01635e-06
-2.04846e-05
-2.04891e-05
-2.04377e-05
-2.04049e-05
-2.03214e-05
-2.03932e-05
-2.04447e-05
-2.04682e-05
-2.05505e-05
-2.05898e-05
-2.05406e-05
-2.04962e-05
-2.04665e-05
-2.04625e-05
-2.05244e-05
-2.06902e-05
-2.12017e-05
-2.12314e-05
-2.08697e-05
-2.0489e-05
-2.02108e-05
-2.01197e-05
-2.0045e-05
-1.99911e-05
-1.99987e-05
-2.00149e-05
-2.0034e-05
-2.00826e-05
-2.02736e-05
-2.06535e-05
-2.07194e-05
-2.06784e-05
-2.05939e-05
-2.04947e-05
-2.04219e-05
-2.04558e-05
-2.05976e-05
-2.09142e-05
-2.14042e-05
-2.19113e-05
-2.25108e-05
-2.24144e-05
-2.23195e-05
-2.1753e-05
-2.10699e-05
-2.13649e-05
-1.96565e-05
-1.97847e-05
-2.04615e-05
-1.95545e-05
-1.84882e-05
-1.83297e-05
-1.87992e-05
-1.80702e-05
-1.75882e-05
-1.78177e-05
-1.99945e-05
-1.82958e-05
-1.58284e-05
-1.95321e-05
-1.96277e-05
-2.13507e-05
-1.71956e-05
-1.73515e-05
-2.22916e-05
-2.202e-05
-2.22344e-05
-1.23734e-05
-3.0734e-05
-1.77887e-05
-1.7033e-05
-1.90582e-05
-2.46226e-05
-2.767e-05
-1.84066e-05
-9.61715e-06
-1.93379e-05
-3.26006e-05
-1.83485e-05
-3.22187e-05
-1.66539e-05
-1.42331e-05
-1.4399e-05
-2.48616e-05
-3.09232e-05
-4.11999e-05
-2.50014e-05
-4.0541e-05
-1.13388e-05
-2.82622e-05
-3.69658e-05
1.4299e-07
-5.02771e-05
-2.35516e-05
-1.89025e-05
-4.97404e-05
-5.09693e-06
-4.74693e-05
-5.15743e-05
1.08459e-06
-2.0482e-05
-2.0484e-05
-2.04502e-05
-2.04132e-05
-2.0322e-05
-2.03931e-05
-2.04499e-05
-2.04665e-05
-2.05015e-05
-2.05635e-05
-2.0548e-05
-2.0516e-05
-2.0489e-05
-2.04937e-05
-2.05599e-05
-2.07347e-05
-2.12406e-05
-2.11964e-05
-2.08471e-05
-2.04915e-05
-2.02158e-05
-2.01206e-05
-2.00632e-05
-1.99093e-05
-1.99926e-05
-2.00365e-05
-2.00576e-05
-2.00924e-05
-2.01544e-05
-2.04445e-05
-2.0666e-05
-2.06339e-05
-2.06036e-05
-2.04568e-05
-2.04508e-05
-2.0525e-05
-2.06221e-05
-2.10189e-05
-2.1442e-05
-2.21397e-05
-2.28613e-05
-2.28069e-05
-2.20898e-05
-2.18967e-05
-2.11453e-05
-2.08952e-05
-2.05168e-05
-2.02398e-05
-1.87925e-05
-1.88824e-05
-1.91278e-05
-1.87059e-05
-1.8463e-05
-1.72434e-05
-1.7654e-05
-1.91696e-05
-1.80205e-05
-1.61171e-05
-1.87055e-05
-2.11213e-05
-1.91443e-05
-1.69247e-05
-1.70772e-05
-2.58519e-05
-1.75464e-05
-1.65156e-05
-1.74352e-05
-1.89839e-05
-3.2058e-05
-6.78605e-06
-1.24348e-05
-4.15873e-05
-2.59231e-05
3.32116e-06
-3.49349e-05
-2.80008e-05
-3.4938e-05
-8.52749e-06
-1.11777e-05
-3.37416e-05
-2.03357e-05
-2.1292e-05
-2.46079e-05
-2.76451e-05
-3.71881e-05
-3.438e-05
-1.86561e-05
-3.46384e-05
-2.45244e-06
-3.51229e-05
-3.09002e-05
-9.41872e-06
-5.35137e-05
-1.54453e-05
-2.27226e-05
-5.08834e-05
1.02049e-06
-5.34323e-05
-4.03324e-05
6.00751e-06
-2.04815e-05
-2.04802e-05
-2.04513e-05
-2.04261e-05
-2.03478e-05
-2.03987e-05
-2.04497e-05
-2.04679e-05
-2.0505e-05
-2.05543e-05
-2.05444e-05
-2.052e-05
-2.04932e-05
-2.04963e-05
-2.05654e-05
-2.07559e-05
-2.12326e-05
-2.11348e-05
-2.08226e-05
-2.04997e-05
-2.02247e-05
-2.01324e-05
-2.00795e-05
-1.99226e-05
-1.99979e-05
-2.00483e-05
-2.00852e-05
-2.01159e-05
-2.01704e-05
-2.03615e-05
-2.06486e-05
-2.06133e-05
-2.05929e-05
-2.04606e-05
-2.04544e-05
-2.04145e-05
-2.05749e-05
-2.11642e-05
-2.15578e-05
-2.24637e-05
-2.2941e-05
-2.29306e-05
-2.18409e-05
-2.22297e-05
-2.13361e-05
-2.0499e-05
-2.0746e-05
-1.97418e-05
-1.87152e-05
-1.95105e-05
-1.90507e-05
-1.83831e-05
-1.80077e-05
-1.7545e-05
-1.80844e-05
-1.84751e-05
-1.70745e-05
-1.70571e-05
-1.97708e-05
-1.71632e-05
-1.79603e-05
-1.86171e-05
-1.86002e-05
-2.28173e-05
-1.50912e-05
-2.18418e-05
-1.89645e-05
-1.81399e-05
-1.8883e-05
-1.90706e-05
-3.22457e-05
-3.08952e-05
-1.49455e-05
-1.21505e-05
-4.3656e-05
-2.37191e-05
-2.05167e-05
-2.46008e-05
-2.09103e-05
-1.69502e-05
-8.73179e-06
-3.21236e-05
-4.12724e-05
-3.09948e-05
-3.37355e-05
-1.45121e-05
-1.19027e-05
-2.69265e-05
-6.4179e-06
-4.52591e-05
-2.5856e-05
-2.04519e-05
-4.884e-05
-1.5193e-05
-2.61396e-05
-4.81208e-05
1.65192e-06
-5.90692e-05
-3.61737e-05
1.13478e-05
-2.04855e-05
-2.04886e-05
-2.04731e-05
-2.04323e-05
-2.03675e-05
-2.04171e-05
-2.04672e-05
-2.04829e-05
-2.04945e-05
-2.05189e-05
-2.05566e-05
-2.05309e-05
-2.05096e-05
-2.05227e-05
-2.05834e-05
-2.07601e-05
-2.11698e-05
-2.10426e-05
-2.07674e-05
-2.04977e-05
-2.02632e-05
-2.01758e-05
-2.01126e-05
-1.99405e-05
-2.00212e-05
-2.00813e-05
-2.01361e-05
-2.01746e-05
-2.02047e-05
-2.0303e-05
-2.05646e-05
-2.0577e-05
-2.05689e-05
-2.04756e-05
-2.04638e-05
-2.04142e-05
-2.05883e-05
-2.11015e-05
-2.15921e-05
-2.26774e-05
-2.29425e-05
-2.30145e-05
-2.18707e-05
-2.22089e-05
-2.14383e-05
-2.0029e-05
-1.99736e-05
-1.9952e-05
-1.89771e-05
-1.98139e-05
-1.84287e-05
-1.80305e-05
-1.73366e-05
-1.77525e-05
-1.90794e-05
-1.79587e-05
-1.72865e-05
-1.77255e-05
-1.86982e-05
-1.81284e-05
-2.1691e-05
-1.60901e-05
-1.69582e-05
-2.17833e-05