/*--------------------------------*- C++ -*----------------------------------*\
| =========                 |                                                 |
| \\      /  F ield         | OpenFOAM: The Open Source CFD Toolbox           |
|  \\    /   O peration     | Version:  2.3.1                                 |
|   \\  /    A nd           | Web:      www.OpenFOAM.org                      |
|    \\/     M anipulation  |                                                 |
\*---------------------------------------------------------------------------*/
FoamFile
{
    version     2.0;
    format      ascii;
    class       volVectorField;
    location    "1000";
    object      ddt0(U);
}
// * * * * * * * * * * * * * * * * * * * * * * * * * * * * * * * * * * * * * //

dimensions      [0 1 -2 0 0 0 0];

internalField   nonuniform List<vector> 
19300
(
(6.67651e-05 -3.58905e-05 -9.24563e-20)
(0.000102198 -0.000196747 0)
(0.000129089 -0.000295025 -9.8976e-20)
(0.000190291 -0.000380071 -4.64916e-20)
(0.00025721 -0.000372619 -5.19884e-20)
(0.000262417 -0.00030068 1.0732e-19)
(0.000388043 -3.82719e-05 4.99994e-20)
(0.000419978 0.000631082 7.79352e-21)
(0.000218266 0.00168923 5.40169e-20)
(0.000269023 0.00285357 6.36017e-20)
(-0.000150776 0.00373314 7.40345e-20)
(-0.000400526 0.00441589 8.5143e-21)
(-0.000886005 0.00458913 -8.8264e-21)
(-0.00128222 0.00482469 -1.54781e-19)
(-0.00175936 0.00348471 9.73346e-21)
(-0.00175198 0.00185617 -6.76642e-20)
(-0.00214139 0.00128447 -1.0062e-20)
(-0.00169244 0.000406774 6.20573e-20)
(-0.00247564 -0.000108431 2.15913e-20)
(-0.00185637 -0.000531892 -8.96657e-20)
(-0.00271203 -0.002805 4.57348e-20)
(-0.0029971 -0.00263645 -4.8136e-20)
(-0.00239361 -0.00235935 -2.47577e-20)
(-0.00317219 -0.00231392 1.27479e-19)
(-0.00124625 -0.00143971 0)
(-0.00201601 -0.00041539 -5.56738e-20)
(-0.00187042 0.0022178 0)
(-0.00111431 0.00417025 0)
(-0.00267311 0.00554035 -3.0846e-20)
(-0.00163682 0.00833946 3.20332e-20)
(-0.0031174 0.00951279 0)
(-0.00405047 0.00996718 6.87612e-20)
(-0.00194927 0.0103209 7.16193e-20)
(-0.00649791 0.0113138 7.46074e-20)
(-0.00311214 0.0100019 1.16554e-19)
(-0.00567146 0.00864097 -4.05775e-20)
(-0.00589072 0.00795214 -8.42826e-20)
(-0.0054499 0.00686551 4.27493e-20)
(-0.00694381 0.00435486 -1.37192e-19)
(-0.00522618 0.00296953 0)
(-0.00775784 0.00191013 0)
(-0.0051861 -0.000471398 0)
(-0.0079653 -0.000436147 0)
(-0.00546929 -0.00316164 -6.41821e-22)
(-0.00683573 -0.00230265 6.02001e-20)
(-0.00807585 -0.00149415 6.37045e-20)
(-0.00582267 -0.00358446 6.59272e-20)
(-0.0104947 -0.00249004 -1.36292e-19)
(-0.00560753 -0.00664726 -1.43539e-19)
(-0.0101546 -0.00234642 7.86054e-20)
(-0.00732913 -0.000280594 -1.66557e-19)
(-0.0147173 -0.00342091 -8.38071e-20)
(-0.00716586 -0.000259487 8.70435e-20)
(-0.012573 -0.00292131 1.81619e-19)
(-0.012958 -0.000456773 9.36656e-20)
(-0.00779468 0.00426477 2.00659e-21)
(-0.0145917 0.0107821 1.55508e-19)
(-0.00999785 0.00553448 -5.35592e-20)
(-0.0144729 0.0171038 0)
(-0.0134688 0.0159891 0)
(-0.0156221 0.0161391 0)
(-0.0147698 0.021645 -1.36458e-19)
(-0.0162798 0.0202753 -1.48608e-19)
(-0.018035 0.0219538 -1.53861e-19)
(-0.0202302 0.0205535 -1.14815e-21)
(-0.0135132 0.0237073 8.60184e-20)
(-0.0258439 0.0199767 9.03389e-20)
(-0.0126203 0.0251153 9.70794e-20)
(-0.0215273 0.0233878 -2.03283e-19)
(-0.017927 0.0235661 -1.08425e-19)
(-0.0165959 0.0284628 1.12663e-19)
(-0.0255046 0.0174809 0)
(-0.00919407 0.0274899 -1.29852e-19)
(-0.0271367 0.0270735 -2.71084e-19)
(-0.0253916 0.0211783 2.6875e-19)
(-0.00713063 0.0222248 -2.91177e-19)
(-0.0380845 0.0329382 1.60817e-19)
(-0.0215516 0.0141054 0)
(-0.0301216 0.0384474 1.82108e-19)
(-0.0219107 0.0141219 1.93192e-19)
(-0.0437497 0.0339163 2.05244e-19)
(-0.00636112 0.0264855 4.44387e-19)
(-0.0396714 0.0176525 0)
(-0.00812307 0.0763246 2.56585e-19)
(-0.0336555 -0.00622798 -2.66293e-19)
(0.00122433 0.0613344 0)
(-0.0138347 0.0561681 1.0627e-21)
(-0.0104124 0.0444614 3.2121e-19)
(-0.0289656 0.0483941 3.51669e-19)
(0.0100972 0.0218496 -7.07463e-21)
(-0.00420505 0.0829255 0)
(-0.044281 -0.0295707 -4.33144e-19)
(0.0379685 0.0801969 -2.30727e-19)
(-0.0551219 0.0376796 -8.23817e-22)
(0.0318814 0.00691924 2.77863e-19)
(-0.0281749 0.122967 -5.95156e-19)
(0.0199599 0.0506496 6.3714e-19)
(-0.0080969 0.00459309 -8.63056e-19)
(0.0124589 0.176702 5.35096e-19)
(0.0230505 0.0905289 0)
(0.00014993 -0.000134169 0)
(7.9257e-05 -0.000469421 4.84501e-20)
(9.21807e-05 -0.000529237 1.03018e-19)
(0.000121821 -0.000471527 3.20152e-21)
(0.00035489 -0.000328491 -3.35756e-21)
(0.000371543 0.000112856 -1.156e-19)
(0.000282266 0.00108228 3.67943e-21)
(2.32646e-05 0.00274195 -2.96746e-23)
(-0.000320346 0.004144 -6.19928e-20)
(-0.000601041 0.0051326 0)
(-0.00126666 0.0057593 -6.59245e-20)
(-0.00143975 0.00558382 6.80575e-20)
(-0.00188293 0.00497376 -8.81283e-21)
(-0.00188398 0.0043367 8.21934e-20)
(-0.00193356 0.00289066 6.61728e-20)
(-0.00214188 0.00167792 8.78941e-20)
(-0.00209425 0.000624557 -1.00605e-20)
(-0.00210435 -0.00021851 -7.32262e-20)
(-0.00223346 -0.00025465 0)
(-0.00184586 -0.000711683 2.22615e-20)
(-0.00226196 -0.00116021 -4.6358e-20)
(-0.00210912 -0.00190678 -7.18841e-20)
(-0.00180235 -0.00202829 0)
(-0.00243329 -0.00230821 -5.15716e-20)
(-0.00155893 -0.00150562 -5.26526e-20)
(-0.00235496 0.0016097 0)
(-0.00271778 0.00492153 0)
(-0.00206401 0.00661558 2.95817e-20)
(-0.00430043 0.00936081 -3.06665e-20)
(-0.00333157 0.0109524 0)
(-0.00479275 0.0116444 -9.89344e-20)
(-0.00558234 0.01112 -6.9532e-20)
(-0.00422336 0.0113049 -1.43354e-19)
(-0.00776428 0.0118228 -3.78108e-20)
(-0.00425015 0.00843644 -3.94119e-20)
(-0.00780773 0.00874814 -8.09678e-20)
(-0.00629702 0.00752237 1.69702e-19)
(-0.0066701 0.00542878 -1.32742e-19)
(-0.00724817 0.00376965 1.84281e-19)
(-0.0068388 0.00279937 4.76809e-20)
(-0.00808637 0.00188972 0)
(-0.00698529 -0.00100494 -1.0475e-19)
(-0.00946736 0.000250567 1.09176e-19)
(-0.00641584 -0.00277928 -2.75273e-22)
(-0.0123979 -0.00184727 -6.05217e-20)
(-0.00796519 -0.00141521 1.26969e-19)
(-0.00993919 -0.00443314 5.04932e-22)
(-0.0115987 -0.00161417 6.93258e-20)
(-0.00821594 -0.00439706 8.89833e-22)
(-0.0145587 -0.00174357 -1.03968e-21)
(-0.00781595 0.00116974 2.39241e-19)
(-0.0154492 -0.000766421 -8.33415e-20)
(-0.00926529 -0.00238397 8.6952e-20)
(-0.0129928 0.00055346 -9.24653e-20)
(-0.0154227 0.00739712 1.43647e-19)
(-0.012006 0.00566877 5.20603e-20)
(-0.0204051 0.0130124 -5.56496e-20)
(-0.00967065 0.0129637 2.26225e-19)
(-0.0245127 0.0208274 9.62941e-22)
(-0.00988215 0.0211193 8.46553e-22)
(-0.0223839 0.0198647 -1.98827e-19)
(-0.0177985 0.0252685 2.79055e-19)
(-0.015929 0.0237784 -7.32869e-20)
(-0.0215496 0.0297103 7.79307e-20)
(-0.0193678 0.0232212 -8.14188e-20)
(-0.0149012 0.0269342 8.56864e-20)
(-0.0237488 0.0282931 -8.97336e-20)
(-0.015062 0.0309712 0)
(-0.0318109 0.0247289 1.02693e-19)
(-0.0124761 0.0289518 0)
(-0.0305949 0.0345552 -1.18908e-19)
(-0.0221257 0.0223466 1.2126e-19)
(-0.0227863 0.0320939 -2.53625e-19)
(-0.0305277 0.0343476 1.36887e-19)
(-0.0202783 0.0229544 -1.4492e-19)
(-0.0278843 0.0271489 3.0623e-19)
(-0.0315191 0.0448517 -1.59984e-19)
(-0.0177316 0.019155 -1.70717e-19)
(-0.0341009 0.0351288 -3.69831e-19)
(-0.0165306 0.0372497 1.92405e-19)
(-0.0396792 0.0316421 -4.15995e-19)
(-0.00516737 0.0359851 1.08518e-19)
(-0.0503544 0.0184063 -2.34513e-19)
(-0.012944 0.0684139 1.24708e-19)
(-0.0215616 0.0149695 1.3537e-19)
(-0.0439747 0.0360494 -1.42955e-19)
(-0.00365594 0.0460493 2.99931e-19)
(-0.04304 0.0546709 -1.59082e-19)
(-0.0094151 0.047862 -1.77257e-19)
(-0.0232779 0.0135413 -2.66521e-21)
(-0.0449082 0.106243 -1.95975e-19)
(-0.0029417 0.0391781 -2.06928e-19)
(-0.0111108 0.014656 2.41585e-19)
(-0.0539396 0.200735 0)
(0.0415367 -0.0344972 -2.80561e-19)
(-0.0253581 0.0889515 -3.02258e-19)
(0.0417487 0.19183 -3.39151e-19)
(0.0176511 -0.077657 0)
(0.10709 0.216987 -3.66963e-19)
(-0.0456853 -0.0499701 3.82834e-19)
(0.000210778 -0.000183475 -7.4882e-22)
(5.51127e-05 -0.000634782 -9.88583e-20)
(5.78038e-05 -0.000681942 -5.0847e-20)
(0.000143022 -0.00070792 0)
(0.000568509 -0.00058979 -3.36755e-21)
(0.000436154 0.000190506 3.91066e-21)
(0.000147842 0.00142733 5.84792e-20)
(6.56773e-05 0.0031493 -8.05169e-21)
(-4.06373e-05 0.00461124 1.55939e-20)
(-0.000295869 0.00577774 -3.49809e-23)
(-0.00104649 0.00654295 5.80737e-20)
(-0.00122227 0.00639041 -6.84949e-20)
(-0.00174551 0.00575408 -6.98356e-20)
(-0.00190432 0.00486881 7.2084e-20)
(-0.00226041 0.00341931 0)
(-0.00251945 0.00201888 3.84677e-20)
(-0.0025997 0.000732687 -1.00028e-20)
(-0.00259049 -8.09932e-05 2.07111e-20)
(-0.00290626 -0.000588436 -1.07123e-20)
(-0.00275957 -0.00110345 0)
(-0.0028108 -0.00164405 -1.14401e-20)
(-0.00313599 -0.00258553 3.55196e-20)
(-0.0024648 -0.00269577 -4.90963e-20)
(-0.00316517 -0.00273517 2.54382e-20)
(-0.0021881 -0.00209726 5.31275e-20)
(-0.00254818 0.00103399 0)
(-0.00316619 0.0050183 2.78178e-20)
(-0.0016746 0.00690175 8.78785e-20)
(-0.00414309 0.0103927 6.06322e-20)
(-0.00318867 0.01152 0)
(-0.00377338 0.0126117 6.6514e-20)
(-0.00548804 0.0123117 0)
(-0.00377233 0.0123729 7.19725e-20)
(-0.00691394 0.0127316 -1.10788e-19)
(-0.00445501 0.00928841 -1.47255e-22)
(-0.00683153 0.0107296 -3.96081e-20)
(-0.00674941 0.00808837 -4.21531e-20)
(-0.00605034 0.00627334 8.7626e-20)
(-0.00774891 0.00498138 -9.19788e-20)
(-0.0069195 0.00420751 -5.29969e-22)
(-0.00881689 0.00341432 -4.9747e-20)
(-0.00703743 0.000125996 2.35052e-22)
(-0.00999829 0.00298803 -6.3034e-22)
(-0.00696009 -0.000806536 -5.65371e-20)
(-0.0107967 0.000782079 -6.00943e-20)
(-0.00867882 0.000591274 6.30273e-20)
(-0.00790228 -0.00458712 0)
(-0.0128004 0.00107775 0)
(-0.00471166 -0.000987026 0)
(-0.0137257 -0.00137594 -1.13238e-19)
(-0.00684478 0.00207607 -1.18459e-19)
(-0.0102006 0.00139508 8.2474e-20)
(-0.0120942 0.000890412 -1.64962e-19)
(-0.00619214 0.00110585 0)
(-0.0164168 0.0128617 -5.03747e-20)
(-0.00331738 0.00391712 5.05778e-20)
(-0.0188426 0.0179224 -1.07658e-19)
(-0.00376601 0.0144961 5.63373e-20)
(-0.0182486 0.0202404 0)
(-0.00847165 0.026164 0)
(-0.0139811 0.0245448 6.53838e-20)
(-0.0177015 0.0255815 6.74025e-20)
(-0.00681755 0.0232884 0)
(-0.0232567 0.0392465 -1.59204e-21)
(-0.0121682 0.0213436 1.64002e-19)
(-0.0132276 0.0260185 0)
(-0.0216937 0.0374559 0)
(-0.0101962 0.0340599 -9.70699e-20)
(-0.027962 0.028135 -1.02007e-19)
(-0.00826369 0.0274194 -1.46253e-21)
(-0.026734 0.0450377 1.1592e-19)
(-0.0138973 0.0191619 1.83589e-21)
(-0.0213235 0.0368601 1.28706e-19)
(-0.020316 0.035657 1.36405e-19)
(-0.019862 0.0293192 -2.87318e-19)
(-0.0188874 0.0244847 -2.29987e-21)
(-0.0243661 0.0465083 1.60588e-19)
(-0.0137695 0.0244921 1.74389e-19)
(-0.0265713 0.0223631 1.84455e-19)
(-0.0147067 0.0545352 9.91521e-20)
(-0.0312744 0.0167684 2.13794e-19)
(-0.00624202 0.051392 -2.22345e-19)
(-0.0364907 0.0110344 1.15249e-19)
(-0.00773246 0.060407 -1.07869e-21)
(-0.0222053 0.0339862 -2.63257e-19)
(-0.0285382 0.0305983 0)
(-0.00100051 0.0321211 -3.01775e-19)
(-0.0356372 0.0540665 -1.64301e-19)
(0.00243634 0.0614506 3.4257e-19)
(-0.0130795 0.0140097 0)
(-0.00212314 0.05964 0)
(-0.00481663 0.112904 9.85361e-21)
(0.0220552 -0.0666944 4.56969e-19)
(-0.007969 0.123402 0)
(0.0446843 0.0472528 2.98136e-19)
(0.0133953 -0.0311466 9.81298e-21)
(-0.00199153 0.163125 0)
(0.0242798 -0.133127 0)
(0.0709195 0.146742 -3.48724e-19)
(-0.100613 0.0215679 -3.9835e-19)
(0.000262777 -0.00029333 0)
(4.64497e-05 -0.000855149 4.98115e-20)
(2.11691e-05 -0.000944096 -1.59314e-21)
(0.000114494 -0.000989296 -1.57417e-21)
(0.000629109 -0.000836709 3.37956e-21)
(0.000463161 1.25195e-05 1.11267e-19)
(0.000185507 0.00187369 -1.14644e-19)
(0.000151441 0.00415647 -5.88469e-20)
(0.000127424 0.00599442 0)
(-0.000523272 0.0073919 0)
(-0.00118183 0.00838559 0)
(-0.00147212 0.00819354 0)
(-0.0016701 0.00735096 7.00989e-20)
(-0.00186602 0.00602975 -7.23617e-20)
(-0.00233581 0.00437993 0)
(-0.00246234 0.00260412 -2.90642e-20)
(-0.00241231 0.00114296 -9.89526e-21)
(-0.00240699 -7.52172e-05 0)
(-0.0023245 -0.000402684 0)
(-0.00279146 -0.00117904 -1.0907e-20)
(-0.00216917 -0.00131566 5.5953e-20)
(-0.00239805 -0.00182175 0)
(-0.00262411 -0.00242566 0)
(-0.00302176 -0.00263075 -4.95931e-20)
(-0.00292223 -0.00246696 1.30008e-20)
(-0.00280738 -0.000574417 1.015e-23)
(-0.0033051 0.00431372 -1.57487e-20)
(-0.00217475 0.00836127 -7.69586e-20)
(-0.00459072 0.011717 -4.58548e-20)
(-0.0040877 0.0130901 3.13984e-20)
(-0.00418968 0.014641 -6.52047e-20)
(-0.0060753 0.0145918 3.38554e-20)
(-0.00429924 0.0133359 -3.4419e-20)
(-0.00732395 0.01498 3.74414e-20)
(-0.00489986 0.01064 3.83113e-20)
(-0.0069714 0.0115716 4.06514e-20)
(-0.00702936 0.00990149 4.10548e-20)
(-0.00621229 0.00635632 0)
(-0.00784411 0.00733501 -4.47046e-20)
(-0.00684969 0.00342355 -4.76405e-20)
(-0.00881593 0.00463619 0)
(-0.00627885 6.47596e-05 -5.09881e-20)
(-0.00989051 0.00183717 -5.32387e-20)
(-0.0057197 0.00195874 1.12587e-19)
(-0.00992462 -0.000797081 -8.78617e-20)
(-0.00740234 0.00100364 -2.67926e-22)
(-0.00714768 -0.00209783 6.47479e-20)
(-0.0112918 0.0011533 -3.37787e-20)
(-0.00554951 -0.00296182 3.5762e-20)
(-0.0124764 0.000353257 3.79677e-20)
(-0.00694997 0.00606653 4.09314e-20)
(-0.0101616 -0.00158619 -1.2403e-19)
(-0.0136474 0.0051783 1.88566e-21)
(-0.00437003 0.00268923 -8.87114e-20)
(-0.0198991 0.00852965 -1.42206e-19)
(-0.00455432 0.00790224 -1.00856e-19)
(-0.0189373 0.00730272 1.06337e-19)
(-0.0123023 0.0194623 -6.16261e-20)
(-0.0124134 0.0212744 6.31939e-20)
(-0.0172818 0.0197564 -6.02714e-20)
(-0.00935877 0.0287622 6.41395e-20)
(-0.0230735 0.0222976 -7.08015e-20)
(-0.00446865 0.0223442 7.30262e-20)
(-0.0286007 0.0455022 -2.28862e-19)
(-0.00654859 0.012959 7.99691e-20)
(-0.0158837 0.0236046 8.61948e-20)
(-0.0226522 0.0443943 -9.1828e-20)
(-0.00800378 0.0318912 1.89307e-19)
(-0.0327309 0.024101 1.01912e-19)
(-0.00505591 0.0272169 -1.05169e-19)
(-0.0330451 0.0431803 1.14073e-19)
(-0.0146735 0.0220458 0)
(-0.0203291 0.0272533 -2.55314e-19)
(-0.0271351 0.0361804 -1.65614e-21)
(-0.0150651 0.0358513 2.82771e-19)
(-0.0284795 0.0170796 -1.46222e-19)
(-0.0230294 0.0360445 -3.20319e-19)
(-0.0228226 0.047222 3.40394e-19)
(-0.0254159 0.0029256 -9.07459e-20)
(-0.0223 0.0648201 -2.88978e-19)
(-0.0296395 0.0104934 1.01627e-19)
(-0.0116548 0.0529496 -1.19635e-21)
(-0.0355704 0.0286856 -1.19077e-19)
(-0.0161834 0.023154 1.20417e-19)
(-0.0170824 0.0622237 1.46178e-21)
(-0.0247828 0.0377008 1.39015e-19)
(-0.00676249 0.028499 2.99924e-19)
(-0.0334371 0.0491091 1.56606e-19)
(-0.00412865 0.0518169 -7.99609e-21)
(-0.00438766 0.048899 1.84168e-19)
(-0.0287802 0.0175993 -1.93946e-19)
(0.0124641 0.112577 9.31793e-21)
(-0.00154969 0.0155618 -2.28999e-19)
(-0.0403285 0.0562314 0)
(0.04849 0.0843264 0)
(-0.0544722 0.00563449 -2.81706e-19)
(0.0555387 0.169558 -1.48374e-19)
(-0.0419247 0.0206585 5.24354e-21)
(0.0631405 -0.0303609 3.61897e-19)
(0.00800308 0.324576 -1.90864e-19)
(0.00029505 -0.000423463 -7.34072e-22)
(4.55939e-05 -0.0010538 -4.98329e-20)
(5.32571e-05 -0.00118933 5.1499e-20)
(0.000112612 -0.00130753 0)
(0.000679664 -0.00112142 5.27672e-20)
(0.000519538 -1.17916e-05 -5.56485e-20)
(0.000162765 0.00206405 5.7502e-20)
(0.000144653 0.00518512 -5.71803e-20)
(0.000210705 0.00721538 0)
(-0.000523053 0.00890052 0)
(-0.00109173 0.00972727 -3.15418e-20)
(-0.00144797 0.00943727 0)
(-0.00169799 0.00866783 -8.49972e-21)
(-0.00185659 0.0068762 3.72312e-23)
(-0.00253928 0.00491408 3.50849e-23)
(-0.00250507 0.00318401 4.62719e-20)
(-0.00255561 0.00142786 3.81271e-20)
(-0.00244112 9.79735e-07 0)
(-0.00280834 -0.000472366 -1.03349e-20)
(-0.00289399 -0.00117907 5.28708e-20)
(-0.00268642 -0.0015468 -4.4844e-20)
(-0.00264051 -0.00162753 1.14657e-20)
(-0.00240415 -0.00178489 -1.04309e-23)
(-0.00298065 -0.00218972 3.75e-20)
(-0.00264267 -0.00192813 0)
(-0.0026895 -0.000302624 0)
(-0.0033421 0.00328689 -6.96991e-20)
(-0.00182681 0.00948953 8.5152e-20)
(-0.00409118 0.0128322 -1.4803e-20)
(-0.00344965 0.0142838 -1.54087e-20)
(-0.00394211 0.0157253 -1.55692e-20)
(-0.00511016 0.0162969 0)
(-0.00395006 0.0149762 7.01139e-20)
(-0.00670235 0.0157765 -1.80631e-20)
(-0.00509928 0.0121432 -1.82994e-20)
(-0.00625704 0.013715 -3.86181e-20)
(-0.00744443 0.0116152 -4.13016e-20)
(-0.00587398 0.00706099 2.13608e-20)
(-0.00855586 0.0105035 2.28072e-20)
(-0.00615168 0.00539394 4.58213e-20)
(-0.0101431 0.00435737 4.78268e-20)
(-0.00585425 0.00218009 7.59144e-20)
(-0.0101769 0.00380358 2.7785e-20)
(-0.00915709 0.000656932 -8.07236e-20)
(-0.00689462 -0.000281777 2.89683e-20)
(-0.0124675 0.000840259 0)
(-0.00551936 -0.00335176 3.20024e-20)
(-0.0122584 0.00488971 -3.32645e-20)
(-0.0103748 -0.0032024 0)
(-0.00710373 -0.00333523 0)
(-0.0112943 0.00683571 7.85168e-20)
(-0.0085031 -0.00124738 -8.05335e-20)
(-0.0151715 0.0059453 1.2597e-19)
(-0.00249145 0.00445113 8.88126e-20)
(-0.018493 0.00997852 5.11592e-20)
(-0.00702191 0.0129945 -5.93718e-20)
(-0.0117387 0.0162696 -5.90209e-20)
(-0.0177504 0.0125995 1.02176e-19)
(-0.00915484 0.0177916 -5.43845e-20)
(-0.0168118 0.0264145 -6.19002e-20)
(-0.010682 0.0281323 1.27023e-19)
(-0.022152 0.0283992 0)
(-0.00663115 0.0152837 0)
(-0.0274714 0.0493517 7.6267e-20)
(-0.00642992 0.0174823 -2.36016e-21)
(-0.0222976 0.0250669 0)
(-0.0194736 0.0439623 -1.80271e-19)
(-0.00827506 0.0365493 9.02451e-20)
(-0.0309804 0.0337652 0)
(-0.0138363 0.0263017 9.03703e-22)
(-0.0201987 0.040042 1.10778e-19)
(-0.0196089 0.0347377 0)
(-0.0224498 0.036088 -1.22785e-19)
(-0.0162914 0.0294961 1.32674e-19)
(-0.0224859 0.0432686 1.92487e-21)
(-0.0159759 0.0370556 3.5812e-21)
(-0.0242355 0.0281427 7.70608e-20)
(-0.0174332 0.0495966 -8.41215e-20)
(-0.0114974 0.0158834 2.33159e-22)
(-0.0274009 0.0618091 2.42357e-21)
(-0.00433365 0.0291079 0)
(-0.0133622 0.0292347 1.0031e-19)
(-0.0200115 0.0512558 -1.11457e-19)
(0.0122885 0.0367829 -1.23873e-19)
(-0.0269372 0.0465097 0)
(0.000394002 0.0348627 -1.39989e-19)
(0.000452668 0.0519741 -4.21967e-21)
(-0.0114337 0.0409666 -3.12366e-19)
(0.00719288 0.0357507 -1.7008e-19)
(-0.00617426 0.0774272 -5.15935e-21)
(-0.00228851 -0.0085571 3.83528e-19)
(-0.000932424 0.0885667 2.04491e-19)
(0.043028 0.0448455 -2.19931e-19)
(-0.0638517 0.0333719 2.33083e-19)
(0.110128 0.0644843 0)
(-0.0795389 -0.00619667 1.29609e-19)
(0.0881985 0.0801754 3.13115e-19)
(-0.00377797 0.108114 -1.48842e-19)
(0.0785632 -0.137566 -1.63289e-19)
(-0.0565072 0.118082 1.72467e-19)
(0.00031505 -0.000565203 -4.68857e-20)
(0.000123347 -0.00130217 5.08831e-20)
(7.38531e-05 -0.0014789 -2.10974e-21)
(9.93063e-05 -0.00152221 4.82715e-20)
(0.000540709 -0.0013141 -4.94558e-20)
(0.000743402 -0.000167558 -3.33912e-21)
(0.000136519 0.00194607 0)
(0.000271252 0.00639229 5.8129e-20)
(0.000200355 0.00861619 3.66213e-21)
(-0.000398076 0.0104921 -3.34751e-20)
(-0.00119523 0.0115283 5.4426e-20)
(-0.00144311 0.0111437 8.04991e-21)
(-0.00178755 0.00995356 0)
(-0.0018878 0.00806409 3.35165e-20)
(-0.00249643 0.00577608 -3.45914e-20)
(-0.00264207 0.00356047 -3.70182e-20)
(-0.00270684 0.00199815 -8.45904e-20)
(-0.00266219 0.000217676 1.94732e-20)
(-0.00277899 -0.000690969 -2.01384e-20)
(-0.00294399 -0.00147653 -8.31381e-20)
(-0.00275164 -0.00167541 1.07686e-20)
(-0.0026862 -0.00192996 4.3432e-20)
(-0.00266587 -0.0019993 1.14925e-20)
(-0.00285294 -0.00195939 -5.85302e-20)
(-0.00271107 -0.001839 -6.06585e-20)
(-0.00322679 -0.000295496 1.28427e-20)
(-0.00286764 0.00349481 0)
(-0.0030603 0.00891397 -5.64635e-20)
(-0.00394226 0.0136757 0)
(-0.0044021 0.0158206 -1.50403e-20)
(-0.00410099 0.0174269 9.36352e-20)
(-0.00555622 0.0172235 -1.62324e-20)
(-0.00464665 0.016222 0)
(-0.00608109 0.0172072 -1.76484e-20)
(-0.00590681 0.0136579 5.55638e-20)
(-0.00575249 0.0144792 1.96456e-20)
(-0.00714366 0.0132904 5.91319e-20)
(-0.00544236 0.00672066 -4.09607e-20)
(-0.00807334 0.0114931 0)
(-0.00569685 0.00674032 -4.60968e-20)
(-0.00887197 0.004983 -9.36732e-20)
(-0.00659965 0.00391691 -4.97699e-20)
(-0.00785129 0.00496275 1.29721e-19)
(-0.0085514 0.0023569 5.52438e-20)
(-0.00648024 0.000729632 5.60692e-20)
(-0.0104171 0.00386171 -5.95648e-20)
(-0.00524446 -0.00366 6.23968e-20)
(-0.0109602 0.00627304 2.63294e-22)
(-0.00790183 0.00197127 3.38849e-22)
(-0.00615124 -0.00480283 -3.58348e-20)
(-0.0123457 0.0108082 0)
(-0.00533121 -0.000163304 4.4891e-22)
(-0.0143269 0.00205674 4.04109e-20)
(-0.00460257 0.00779951 -1.09388e-21)
(-0.013632 0.0109398 1.41174e-19)
(-0.0124115 0.010316 -4.92492e-20)
(-0.00706635 0.0157171 5.06014e-20)
(-0.0153257 0.0199705 -1.05465e-19)
(-0.00974073 0.0224874 5.71034e-20)
(-0.0160817 0.0217022 -5.9668e-20)
(-0.00795157 0.024693 -1.23405e-19)
(-0.0206264 0.0360062 0)
(-0.00314928 0.0185983 0)
(-0.0227143 0.0509328 0)
(-0.00497288 0.0224284 -7.94427e-20)
(-0.0156202 0.0259319 0)
(-0.0145195 0.0440219 0)
(-0.00660215 0.0409277 -9.33018e-20)
(-0.0192821 0.0306878 0)
(-0.00186734 0.0353804 5.25804e-20)
(-0.0239073 0.0493629 -2.15335e-19)
(-0.00221015 0.021966 -1.58168e-21)
(-0.017715 0.0468161 2.44489e-19)
(-0.0100293 0.0284526 1.92469e-19)
(-0.0114779 0.0386054 -6.68325e-20)
(-0.00925233 0.0412329 -1.44714e-19)
(-0.0157318 0.0360327 -2.10112e-21)
(-0.00725607 0.0274761 0)
(-0.00420258 0.0385639 4.06168e-21)
(-0.0203914 0.0440106 8.84261e-20)
(0.00145957 0.0244682 9.37856e-20)
(-0.0165188 0.0400438 -2.14961e-19)
(-0.0107219 0.0384272 1.12565e-19)
(0.00298184 0.0306036 -1.1245e-19)
(-0.0301111 0.0401604 0)
(0.00731759 0.0274937 0)
(-0.0104119 0.0553083 0)
(-0.0195244 0.0244549 1.56872e-19)
(0.00796451 0.0151489 6.55295e-21)
(-0.0292092 0.0918691 -6.60676e-21)
(0.0228465 -0.00747241 -3.49742e-22)
(-0.0527602 0.0172927 -3.75864e-19)
(0.0506507 0.085338 0)
(-0.0569763 0.00254309 0)
(0.0542465 0.0786416 -5.04912e-21)
(-0.0350731 -0.000124086 -3.62309e-21)
(0.00465469 0.0868986 4.59084e-21)
(0.0344374 -0.0217454 3.05049e-19)
(0.00527256 0.143922 3.26842e-19)
(-0.0296996 -0.0450662 -1.78974e-19)
(0.00037258 -0.000792767 8.38251e-20)
(1.71893e-05 -0.00150243 3.37962e-22)
(5.43987e-05 -0.00187937 -5.0296e-20)
(0.000201957 -0.00171121 -4.73976e-20)
(0.000671843 -0.00135552 -1.58301e-21)
(0.000721387 -1.89865e-05 0)
(9.56244e-05 0.00188408 0)
(0.000227721 0.0070574 0)
(0.000347875 0.0101983 0)
(-0.00042629 0.0123465 5.82603e-20)
(-0.00122879 0.0132682 -3.06418e-20)
(-0.00136864 0.0127108 0)
(-0.00190329 0.0111598 -7.96364e-21)
(-0.00191137 0.00902145 -5.752e-20)
(-0.00243674 0.00697833 6.78892e-20)
(-0.00264827 0.00424711 -3.42804e-20)
(-0.00261851 0.00234479 3.70432e-20)
(-0.00270024 0.000589344 -9.37271e-21)
(-0.00275335 -0.000548593 4.76164e-20)
(-0.00285771 -0.00139893 4.09892e-20)
(-0.00278263 -0.00164779 3.02238e-20)
(-0.00277942 -0.0016906 -4.35001e-20)
(-0.00241099 -0.00176725 1.1043e-20)
(-0.00306604 -0.00118668 4.72419e-20)
(-0.00224349 -0.00174503 2.5503e-20)
(-0.00375067 0.000789625 2.43485e-20)
(-0.00260291 0.00309012 0)
(-0.00344139 0.00922296 0)
(-0.00365106 0.0148482 -1.46326e-20)
(-0.00346756 0.0168601 1.45234e-20)
(-0.00483616 0.018745 -1.56742e-20)
(-0.00429644 0.0177488 -4.64916e-20)
(-0.0049638 0.0185561 3.20509e-20)
(-0.00541925 0.0175243 1.62948e-20)
(-0.00604114 0.0155696 1.77527e-20)
(-0.00480501 0.0155785 0)
(-0.00776091 0.0146819 -5.88351e-20)
(-0.00505716 0.00867546 4.20826e-20)
(-0.00762634 0.0130855 -8.35546e-20)
(-0.00726488 0.00837144 2.19978e-20)
(-0.00749147 0.00620879 -2.14239e-20)
(-0.00871232 0.00438776 2.40823e-20)
(-0.00724254 0.00527892 -5.13216e-20)
(-0.00938627 0.00297067 2.51361e-20)
(-0.00634013 -0.000804935 -2.87067e-20)
(-0.0111314 0.00499875 0)
(-0.00620493 -0.00334422 -2.96414e-20)
(-0.00997321 0.00377285 -3.1859e-20)
(-0.00916285 0.00356468 3.32878e-20)
(-0.00565797 -0.0072491 -3.52272e-20)
(-0.0136924 0.011499 7.22674e-20)
(-0.00409113 0.00484081 3.77981e-20)
(-0.0109769 0.00406861 -4.03965e-20)
(-0.012064 0.00313696 8.28618e-20)
(-0.00463836 0.0121494 -9.13732e-20)
(-0.00942672 0.020336 -4.75325e-20)
(-0.0106473 0.0162588 1.50157e-19)
(-0.010074 0.0155327 -8.66982e-22)
(-0.00946336 0.0219732 -5.37608e-20)
(-0.0119583 0.0292744 -5.6652e-20)
(-0.00760577 0.0263241 6.20001e-20)
(-0.0198769 0.0342347 0)
(-0.00238938 0.0143996 0)
(-0.0204607 0.0506865 1.41321e-19)
(-0.00908408 0.0242231 -8.21614e-20)
(-0.0115202 0.028683 1.61151e-19)
(-0.0171284 0.0440831 1.18287e-19)
(-0.0086688 0.0358956 -8.79611e-20)
(-0.0202442 0.0347756 9.42039e-20)
(-0.0130469 0.0302866 -9.6143e-20)
(-0.0152555 0.0456573 1.58688e-21)
(-0.0176221 0.0326633 -1.0918e-19)
(-0.0151629 0.0451316 0)
(-0.012335 0.0268821 -6.37038e-20)
(-0.0294613 0.0422185 0)
(-0.00301397 0.0352491 -6.8206e-20)
(-0.0218632 0.0434978 7.23557e-20)
(-0.0211541 0.0333263 -7.61015e-20)
(-0.0129144 0.0187704 1.62242e-19)
(-0.0243867 0.0658163 -1.77774e-19)
(4.75615e-05 0.0150847 -4.84076e-21)
(-0.0377876 0.0417945 0)
(0.000540788 0.0370453 2.10346e-19)
(-0.0117641 0.0438518 3.38264e-21)
(-0.0320685 0.038772 1.21827e-19)
(0.0141241 0.020532 -2.56153e-19)
(-0.0299084 0.077574 1.35523e-19)
(-0.00656924 0.0232542 0)
(0.0238854 0.0265356 1.61431e-19)
(-0.06039 0.0773874 -1.73539e-19)
(0.0748912 0.0459919 0)
(-0.0510494 0.00324608 -1.92694e-19)
(0.0379963 0.127498 1.04502e-19)
(0.00387337 -0.044935 0)
(0.00558222 0.129555 -2.32913e-19)
(0.0280392 -0.0427853 -1.24317e-19)
(0.0291248 0.104671 1.46244e-19)
(0.0314335 0.0544768 -2.7377e-21)
(-0.0501064 0.0202722 -4.73924e-19)
(0.233903 0.0621829 1.69394e-19)
(0.000337945 -0.000964326 -4.40206e-20)
(-2.23805e-05 -0.00173109 0)
(7.17176e-05 -0.00277225 0)
(0.000455456 -0.00194329 0)
(0.000803827 -0.00122716 -2.36989e-20)
(0.000656715 0.000285219 3.0978e-21)
(9.64871e-06 0.00201787 -3.18451e-21)
(0.000221238 0.00677697 0)
(0.000472047 0.0125266 0)
(-0.000420791 0.0142193 -3.20402e-20)
(-0.00106516 0.0150922 3.4989e-20)
(-0.00150007 0.0143174 -7.39006e-21)
(-0.00171364 0.0126964 -2.95496e-20)
(-0.0020747 0.0101624 5.88464e-20)
(-0.00238492 0.00770179 6.34701e-21)
(-0.00248593 0.00500016 1.84226e-21)
(-0.00261062 0.00286627 8.65589e-21)
(-0.00264659 0.00101074 -4.37626e-20)
(-0.00273659 -0.000330002 -4.72794e-20)
(-0.00283889 -0.00147295 9.4927e-21)
(-0.00278623 -0.00198175 -4.02622e-20)
(-0.00265819 -0.00196351 1.99105e-20)
(-0.00237242 -0.00224718 1.00226e-20)
(-0.00260576 -0.000892404 1.10871e-20)
(-0.00202997 -0.00116312 2.35661e-20)
(-0.00372442 0.0013842 -4.67777e-20)
(-0.00209801 0.00392801 1.21741e-20)
(-0.00441163 0.00782854 -1.28286e-20)
(-0.00270471 0.0156764 0)
(-0.00374814 0.0180913 0)
(-0.00510765 0.0210095 0)
(-0.00278821 0.0181875 3.09068e-20)
(-0.00637169 0.0218399 1.41827e-20)
(-0.00362404 0.0167445 -8.18072e-20)
(-0.00564338 0.0183416 0)
(-0.00579431 0.0171668 -1.79598e-20)
(-0.00526518 0.0155001 1.85657e-20)
(-0.00610069 0.0115071 3.97282e-20)
(-0.00668303 0.0120138 1.97941e-21)
(-0.00603504 0.010703 6.40378e-20)
(-0.00611749 0.00809434 4.55132e-20)
(-0.00710043 0.00562366 -4.5712e-20)
(-0.00679259 0.00483358 7.29119e-22)
(-0.00728849 0.00474334 -1.0112e-19)
(-0.00534951 0.00255291 -2.58385e-20)
(-0.00962011 0.0049337 -2.79157e-20)
(-0.00499236 -0.000557137 3.04905e-20)
(-0.00892489 0.00422078 -3.06902e-20)
(-0.00847013 0.00549558 7.28534e-22)
(-0.00371873 -0.00410831 0)
(-0.0143613 0.00994991 -4.91513e-22)
(-0.00441481 0.00460698 -3.86995e-20)
(-0.00916701 0.00711599 -3.77767e-20)
(-0.0127851 0.00562677 -3.9491e-20)
(-0.0073887 0.00798145 3.89929e-20)
(-0.00999432 0.0153771 4.54115e-20)
(-0.00947521 0.0191254 -2.34723e-21)
(-0.00957695 0.0190968 -1.02278e-19)
(-0.0112189 0.0215839 5.31626e-20)
(-0.0116708 0.0270976 2.9194e-21)
(-0.00516211 0.0296496 0)
(-0.0193126 0.0371408 -6.17984e-20)
(-0.000513387 0.0186835 6.44551e-20)
(-0.0200849 0.0528555 -1.38835e-19)
(-0.00863222 0.0224886 -3.05977e-21)
(-0.00777321 0.0303269 -4.31552e-20)
(-0.0114667 0.0481883 -7.74664e-20)
(-0.0116456 0.0395373 8.19069e-20)
(-0.00898803 0.0360909 4.58467e-20)
(-0.00942891 0.0360757 1.48253e-21)
(-0.0160726 0.0442947 1.07656e-21)
(0.00031831 0.0365338 5.40926e-20)
(-0.0195236 0.0369338 1.10639e-19)
(-0.00332214 0.0517804 -6.01628e-20)
(-0.0150837 0.0196965 6.29827e-20)
(-0.00131383 0.0465166 6.91043e-20)
(-0.0147233 0.0452499 -7.33391e-20)
(-0.00344749 0.0391738 -1.51421e-19)
(-0.00292609 0.0309545 1.63281e-19)
(-0.0115475 0.0398312 2.8817e-21)
(0.00236387 0.032111 -9.34754e-20)
(-0.0111072 0.0508435 3.53207e-21)
(0.00254707 0.0266547 -1.05224e-19)
(-0.00320372 0.0325372 8.47619e-22)
(-0.0119708 0.0498608 -1.12899e-19)
(0.0270411 0.00424432 -6.03724e-20)
(-0.0194102 0.0933696 -1.3273e-19)
(-0.00504801 -0.0123772 2.08155e-19)
(0.0548223 0.0585016 0)
(-0.0590824 0.02907 -8.07514e-20)
(0.0717062 0.054564 8.53423e-20)
(-0.0205514 -0.0125813 -8.87439e-20)
(0.021254 0.124092 7.69297e-21)
(0.0297731 -0.0392995 0)
(-0.00234803 0.091927 1.14885e-19)
(0.021735 0.0369363 2.44424e-19)
(0.0183607 -0.0847262 2.50202e-21)
(0.0304089 0.232465 -2.83512e-19)
(-0.0417993 -0.180661 1.63058e-19)
(0.117824 0.142201 -3.09349e-19)
(0.00042419 -0.000841096 0)
(-5.08654e-06 -0.00254399 -2.12518e-20)
(0.000189901 -0.00354647 0)
(0.000556924 -0.00212918 0)
(0.000855835 -0.00112153 2.51771e-20)
(0.000622387 0.000621217 -2.27647e-20)
(5.80509e-05 0.00239772 -1.50843e-21)
(6.31117e-05 0.00662913 0)
(0.000579039 0.0143776 0)
(-0.000378741 0.016067 0)
(-0.00103486 0.016822 -2.78795e-20)
(-0.00134247 0.0160924 0)
(-0.00164233 0.0142348 5.73384e-20)
(-0.00192605 0.0112126 -1.99667e-21)
(-0.00220507 0.0083724 -3.15753e-20)
(-0.00230135 0.00559728 1.73701e-20)
(-0.00245099 0.00345551 -1.1686e-20)
(-0.00259874 0.00136691 3.06505e-20)
(-0.0026502 -3.93526e-05 -1.6895e-20)
(-0.00283926 -0.00126759 0)
(-0.00245272 -0.00245649 0)
(-0.00282974 -0.00188893 -2.00742e-20)
(-0.00185696 -0.00268548 -2.0831e-20)
(-0.0025656 -0.000695371 0)
(-0.00267255 -0.000481603 2.1108e-20)
(-0.00214255 0.00194841 4.38261e-20)
(-0.00354435 0.00429681 3.32726e-20)
(-0.0025062 0.00890711 -1.22018e-20)
(-0.0037896 0.0152627 1.18304e-20)
(-0.0025369 0.0194502 1.32077e-20)
(-0.00473069 0.0214906 0)
(-0.00294144 0.0188422 2.77224e-20)
(-0.00487878 0.0237053 -3.07234e-20)
(-0.00388162 0.0173162 4.76342e-20)
(-0.00504151 0.0192129 1.54889e-20)
(-0.00502343 0.0186276 0)
(-0.00520759 0.0161157 0)
(-0.00573052 0.0144556 -3.63827e-20)
(-0.00553854 0.0135265 5.8933e-20)