/*--------------------------------*- C++ -*----------------------------------*\
| =========                 |                                                 |
| \\      /  F ield         | OpenFOAM: The Open Source CFD Toolbox           |
|  \\    /   O peration     | Version:  2.3.1                                 |
|   \\  /    A nd           | Web:      www.OpenFOAM.org                      |
|    \\/     M anipulation  |                                                 |
\*---------------------------------------------------------------------------*/
FoamFile
{
    version     2.0;
    format      ascii;
    class       volScalarField;
    location    "1000";
    object      k;
}
// * * * * * * * * * * * * * * * * * * * * * * * * * * * * * * * * * * * * * //

dimensions      [0 2 -2 0 0 0 0];

internalField   nonuniform List<scalar> 
19300
(
0.0105318
0.010532
0.0105321
0.0105322
0.0105323
0.0105324
0.0105324
0.0105324
0.0105324
0.0105324
0.0105324
0.0105324
0.0105322
0.0105321
0.0105319
0.0105318
0.0105317
0.0105316
0.0105315
0.0105315
0.0105314
0.0105313
0.0105311
0.0105309
0.0105309
0.0105309
0.0105311
0.0105314
0.0105318
0.0105322
0.0105326
0.0105328
0.0105329
0.010533
0.010533
0.010533
0.0105329
0.0105328
0.0105326
0.0105325
0.0105325
0.0105325
0.0105325
0.0105326
0.010533
0.0105333
0.0105334
0.0105337
0.0105338
0.0105343
0.0105347
0.0105354
0.0105362
0.0105369
0.0105395
0.0105412
0.0105453
0.0105477
0.0105532
0.0105562
0.0105611
0.0105649
0.0105691
0.0105754
0.0105787
0.0105849
0.0105906
0.010598
0.0106036
0.0106127
0.0106253
0.0106319
0.0106473
0.0106622
0.0106832
0.0106968
0.0107304
0.0107559
0.0107943
0.0108386
0.0108862
0.0109567
0.0110184
0.0111365
0.0112329
0.0113586
0.011468
0.0115637
0.0116775
0.0117702
0.0118725
0.0119765
0.0120689
0.0121871
0.012287
0.0123946
0.0125127
0.0126003
0.0127239
0.0128597
0.0105308
0.0105308
0.0105307
0.0105307
0.0105306
0.0105305
0.0105304
0.0105303
0.0105302
0.0105301
0.0105299
0.0105298
0.0105297
0.0105296
0.0105295
0.0105295
0.0105295
0.0105295
0.0105295
0.0105295
0.0105295
0.0105296
0.0105296
0.0105297
0.0105297
0.0105299
0.0105304
0.0105308
0.0105312
0.0105314
0.0105317
0.0105319
0.010532
0.0105321
0.0105321
0.0105321
0.010532
0.010532
0.010532
0.010532
0.010532
0.0105321
0.0105322
0.0105323
0.0105326
0.0105329
0.0105331
0.0105337
0.010534
0.0105348
0.0105353
0.0105363
0.0105373
0.0105389
0.0105427
0.0105449
0.0105499
0.0105528
0.0105592
0.0105621
0.010568
0.0105712
0.0105769
0.0105836
0.0105872
0.0105941
0.0106018
0.010609
0.0106166
0.0106283
0.0106428
0.0106507
0.0106705
0.0106856
0.0107124
0.010729
0.0107667
0.010799
0.0108356
0.0109005
0.0109472
0.0110265
0.0111097
0.0112332
0.0113257
0.0114364
0.0115333
0.0116223
0.011729
0.0118166
0.0119089
0.0120133
0.0120992
0.0122129
0.0123086
0.0124073
0.0125219
0.0126045
0.0127153
0.0128494
0.0105284
0.0105284
0.0105283
0.0105283
0.0105283
0.0105283
0.0105283
0.0105283
0.0105284
0.0105284
0.0105285
0.0105286
0.0105286
0.0105286
0.0105286
0.0105286
0.0105286
0.0105286
0.0105287
0.0105287
0.0105287
0.0105287
0.0105286
0.0105286
0.0105286
0.0105287
0.0105289
0.0105294
0.0105301
0.0105307
0.0105311
0.0105314
0.0105316
0.0105317
0.0105317
0.0105317
0.0105317
0.0105315
0.0105314
0.0105314
0.0105314
0.0105314
0.0105315
0.0105317
0.010532
0.0105324
0.0105326
0.0105332
0.0105337
0.0105346
0.0105353
0.0105362
0.0105376
0.0105391
0.010543
0.0105452
0.0105505
0.0105535
0.0105603
0.0105635
0.0105697
0.010573
0.0105789
0.0105867
0.0105902
0.0105973
0.0106061
0.0106133
0.0106218
0.0106332
0.0106496
0.0106577
0.0106781
0.0106937
0.0107233
0.0107397
0.0107789
0.0108164
0.0108493
0.0109284
0.0109704
0.0110559
0.0111466
0.0112635
0.0113493
0.0114526
0.0115454
0.0116322
0.0117355
0.0118253
0.0119089
0.0120202
0.0120996
0.0122052
0.0123022
0.0123791
0.0124934
0.0125781
0.0126659
0.0128047
0.0105273
0.0105272
0.0105273
0.0105272
0.0105272
0.0105272
0.0105272
0.0105273
0.0105273
0.0105273
0.0105274
0.0105274
0.0105273
0.0105272
0.0105271
0.010527
0.0105269
0.0105268
0.0105268
0.0105267
0.0105267
0.0105267
0.0105267
0.0105268
0.0105268
0.0105271
0.0105277
0.0105285
0.0105293
0.0105299
0.0105304
0.0105307
0.0105309
0.010531
0.0105309
0.0105309
0.0105309
0.0105307
0.0105307
0.0105306
0.0105307
0.0105307
0.0105309
0.0105311
0.0105314
0.010532
0.0105323
0.0105331
0.0105336
0.0105345
0.010536
0.0105367
0.0105385
0.0105401
0.0105439
0.0105462
0.0105515
0.0105551
0.0105623
0.0105663
0.0105732
0.0105773
0.0105832
0.0105934
0.0105973
0.0106055
0.0106143
0.0106249
0.010634
0.010646
0.0106639
0.0106766
0.010696
0.0107173
0.010752
0.0107696
0.0108097
0.0108511
0.0108931
0.010972
0.0110191
0.0111137
0.0112012
0.0113027
0.0113833
0.0114777
0.0115622
0.0116538
0.0117445
0.011843
0.0119196
0.0120265
0.0121046
0.0121984
0.0122993
0.0123721
0.0124829
0.0125712
0.0126508
0.0127908
0.0105253
0.0105253
0.0105253
0.0105253
0.0105253
0.0105253
0.0105253
0.0105254
0.0105255
0.0105256
0.0105257
0.0105257
0.0105257
0.0105256
0.0105255
0.0105255
0.0105255
0.0105255
0.0105255
0.0105256
0.0105258
0.0105259
0.0105259
0.010526
0.0105261
0.0105264
0.0105271
0.010528
0.0105289
0.0105295
0.01053
0.0105304
0.0105305
0.0105306
0.0105306
0.0105306
0.0105305
0.0105304
0.0105304
0.0105304
0.0105304
0.0105305
0.0105307
0.0105309
0.0105312
0.010532
0.0105323
0.0105333
0.0105339
0.0105346
0.0105364
0.0105373
0.0105395
0.0105412
0.0105454
0.0105481
0.0105533
0.0105571
0.0105648
0.0105694
0.0105759
0.0105828
0.010587
0.0105991
0.0106044
0.0106141
0.0106208
0.0106358
0.0106442
0.0106617
0.0106719
0.0106926
0.0107078
0.010732
0.0107679
0.0107888
0.0108263
0.0108651
0.0109178
0.010987
0.011045
0.0111406
0.0112245
0.0113214
0.0114017
0.0114941
0.0115774
0.0116736
0.0117541
0.0118586
0.0119274
0.0120291
0.012108
0.0121881
0.0122944
0.0123549
0.0124538
0.012551
0.0126203
0.0127545
0.0105244
0.0105244
0.0105244
0.0105244
0.0105244
0.0105244
0.0105244
0.0105245
0.0105247
0.0105248
0.0105249
0.0105249
0.0105249
0.0105248
0.0105247
0.0105247
0.0105247
0.0105247
0.0105247
0.0105247
0.0105248
0.0105249
0.010525
0.010525
0.0105251
0.0105253
0.0105258
0.0105269
0.0105278
0.0105287
0.0105293
0.0105297
0.0105299
0.01053
0.0105301
0.0105301
0.0105301
0.01053
0.0105301
0.0105301
0.0105301
0.0105302
0.0105305
0.0105308
0.0105311
0.010532
0.0105325
0.0105335
0.0105345
0.0105352
0.0105371
0.0105382
0.0105403
0.0105421
0.0105466
0.0105495
0.0105546
0.0105592
0.0105667
0.0105706
0.0105782
0.0105867
0.0105913
0.0106033
0.010609
0.0106192
0.010628
0.0106417
0.0106502
0.01067
0.0106837
0.0107005
0.01072
0.0107434
0.0107754
0.0108077
0.0108413
0.0108902
0.0109423
0.0110052
0.011094
0.0111843
0.0112655
0.0113564
0.0114434
0.0115324
0.0116135
0.0117046
0.0117724
0.0118696
0.0119347
0.0120282
0.0121113
0.0121812
0.0122856
0.0123488
0.0124427
0.0125445
0.012611
0.0127421
0.0105228
0.0105227
0.0105228
0.0105228
0.0105228
0.0105228
0.0105229
0.010523
0.0105232
0.0105234
0.0105235
0.0105235
0.0105235
0.0105235
0.0105234
0.0105233
0.0105233
0.0105233
0.0105233
0.0105235
0.0105236
0.0105237
0.0105238
0.0105239
0.010524
0.0105243
0.0105249
0.0105262
0.0105273
0.0105284
0.010529
0.0105295
0.0105298
0.0105299
0.01053
0.0105301
0.0105301
0.01053
0.0105301
0.0105301
0.0105301
0.0105302
0.0105305
0.0105308
0.0105312
0.0105322
0.0105328
0.0105339
0.010535
0.0105357
0.0105377
0.0105395
0.0105409
0.0105433
0.0105481
0.010552
0.0105555
0.0105621
0.0105696
0.0105739
0.0105823
0.0105893
0.0105946
0.0106082
0.0106151
0.0106251
0.01064
0.0106489
0.0106593
0.0106826
0.0106961
0.0107219
0.0107389
0.0107707
0.0107926
0.0108473
0.0108811
0.0109381
0.0109824
0.0110738
0.011149
0.0112307
0.0113036
0.0113852
0.0114681
0.011553
0.0116296
0.0117192
0.0117807
0.0118755
0.0119413
0.012026
0.0121117
0.0121787
0.0122802
0.0123425
0.0124249
0.012532
0.01259
0.0127083
0.010522
0.010522
0.010522
0.010522
0.010522
0.0105221
0.0105221
0.0105223
0.0105226
0.0105228
0.0105229
0.0105229
0.0105229
0.0105228
0.0105227
0.0105227
0.0105227
0.0105227
0.0105227
0.0105228
0.010523
0.0105232
0.0105233
0.0105234
0.0105235
0.0105238
0.0105244
0.0105257
0.0105269
0.0105279
0.0105287
0.0105291
0.0105295
0.0105296
0.0105297
0.0105298
0.0105298
0.0105298
0.0105299
0.0105299
0.01053
0.0105301
0.0105305
0.0105309
0.0105316
0.0105325
0.0105333
0.0105343
0.0105359
0.0105367
0.0105384
0.0105408
0.0105422
0.0105453
0.0105483
0.0105541
0.0105576
0.0105651
0.0105709
0.0105785
0.0105866
0.0105939
0.0106013
0.0106142
0.0106209
0.0106313
0.0106488
0.0106591
0.010673
0.0106941
0.0107077
0.0107383
0.0107564
0.0107963
0.0108171
0.0108681
0.0109012
0.0109757
0.0110186
0.0110999
0.0111711
0.0112514
0.0113231
0.0114012
0.0114827
0.0115652
0.0116398
0.0117304
0.0117885
0.0118807
0.0119467
0.012025
0.012111
0.0121793
0.01227
0.0123397
0.0124165
0.0125211
0.0125807
0.0126998
0.0105208
0.0105208
0.0105208
0.0105208
0.0105208
0.0105208
0.0105209
0.0105211
0.0105214
0.0105217
0.0105219
0.0105219
0.0105219
0.0105218
0.0105216
0.0105216
0.0105216
0.0105216
0.0105217
0.0105219
0.0105221
0.0105223
0.0105224
0.0105225
0.0105227
0.010523
0.0105237
0.0105249
0.0105262
0.0105274
0.0105282
0.0105287
0.0105292
0.0105293
0.0105296
0.0105297
0.0105298
0.0105298
0.01053
0.0105301
0.0105302
0.0105304
0.0105309
0.0105313
0.0105323
0.010533
0.0105344
0.0105353
0.0105371
0.0105386
0.01054
0.0105431
0.0105448
0.0105485
0.0105509
0.0105565
0.0105603
0.0105682
0.0105726
0.0105822
0.010588
0.010598
0.0106065
0.0106165
0.0106259
0.0106386
0.0106536
0.0106648
0.010682
0.0107041
0.0107184
0.0107467
0.0107709
0.0108096
0.0108356
0.0108788
0.0109298
0.0109973
0.0110446
0.0111321
0.0112021
0.0112855
0.0113597
0.0114326
0.0115078
0.0115861
0.0116522
0.0117442
0.0117972
0.0118855
0.0119503
0.0120266
0.0121097
0.0121785
0.0122693
0.0123375
0.0124085
0.0125127
0.0125699
0.0126808
0.0105202
0.0105202
0.0105202
0.0105202
0.0105202
0.0105203
0.0105203
0.0105205
0.0105209
0.0105212
0.0105214
0.0105214
0.0105214
0.0105213
0.0105212
0.0105211
0.0105211
0.0105211
0.0105212
0.0105215
0.0105217
0.0105219
0.0105221
0.0105222
0.0105224
0.0105227
0.0105234
0.0105246
0.0105259
0.0105271
0.010528
0.0105285
0.010529
0.0105292
0.0105295
0.0105297
0.0105298
0.0105299
0.01053
0.0105301
0.0105304
0.0105306
0.0105312
0.0105319
0.010533
0.0105337
0.0105352
0.0105361
0.0105377
0.0105401
0.0105412
0.0105443
0.010546
0.0105501
0.0105528
0.0105583
0.0105619
0.0105697
0.0105749
0.0105847
0.0105899
0.0105998
0.0106107
0.0106178
0.0106326
0.0106437
0.0106543
0.0106784
0.0106907
0.0107069
0.0107399
0.0107544
0.0107934
0.010816
0.0108711
0.0108964
0.0109597
0.0110204
0.0110755
0.0111615
0.0112303
0.0113113
0.0113828
0.011452
0.0115228
0.0115988
0.0116596
0.0117515
0.0118033
0.0118886
0.0119533
0.0120279
0.0121084
0.012179
0.0122651
0.0123341
0.0124073
0.0125014
0.0125608
0.0126755
0.0105193
0.0105193
0.0105193
0.0105193
0.0105194
0.0105194
0.0105195
0.0105196
0.0105201
0.0105204
0.0105206
0.0105206
0.0105206
0.0105205
0.0105204
0.0105204
0.0105204
0.0105204
0.0105206
0.0105209
0.0105212
0.0105214
0.0105216
0.0105218
0.0105219
0.0105222
0.0105229
0.0105241
0.0105253
0.0105265
0.0105274
0.010528
0.0105286
0.0105289
0.0105293
0.0105295
0.0105297
0.0105299
0.0105301
0.0105302
0.0105305
0.0105312
0.0105316
0.0105327
0.0105335
0.0105354
0.0105363
0.0105382
0.0105392
0.0105418
0.0105433
0.0105468
0.0105488
0.0105529
0.0105557
0.010562
0.0105658
0.010573
0.010578
0.0105884
0.0105941
0.0106063
0.0106127
0.0106253
0.0106371
0.0106494
0.0106635
0.0106811
0.0107053
0.010716
0.0107487
0.0107665
0.0108103
0.0108345
0.0108795
0.0109257
0.0109756
0.0110555
0.0111105
0.01119
0.0112504
0.0113274
0.0113975
0.0114655
0.0115337
0.0116087
0.0116664
0.0117581
0.0118101
0.011893
0.0119565
0.0120309
0.0121063
0.0121812
0.0122612
0.0123352
0.0124057
0.0124908
0.0125638
0.0126538
0.010519
0.010519
0.010519
0.010519
0.010519
0.010519
0.0105191
0.0105192
0.0105197
0.0105201
0.0105202
0.0105203
0.0105202
0.0105201
0.0105201
0.01052
0.0105201
0.0105201
0.0105204
0.0105207
0.010521
0.0105213
0.0105215
0.0105216
0.0105218
0.0105221
0.0105228
0.0105238
0.010525
0.0105262
0.0105272
0.0105277
0.0105285
0.0105287
0.0105292
0.0105295
0.0105297
0.0105299
0.0105302
0.0105305
0.0105308
0.0105317
0.0105323
0.0105337
0.0105345
0.0105362
0.0105373
0.0105396
0.0105407
0.0105433
0.0105449
0.0105481
0.010551
0.0105545
0.0105577
0.0105635
0.0105678
0.0105747
0.010579
0.0105897
0.0105955
0.0106079
0.0106143
0.0106271
0.0106406
0.0106494
0.0106702
0.0106811
0.0107085
0.0107228
0.0107523
0.0107718
0.0108108
0.0108536
0.0108834
0.0109396
0.010984
0.0110778
0.0111315
0.0112085
0.0112694
0.0113466
0.0114146
0.0114846
0.011545
0.0116225
0.0116745
0.0117653
0.0118178
0.0118989
0.0119587
0.0120376
0.0121006
0.0121886
0.0122521
0.0123374
0.012403
0.0124841
0.0125655
0.0126467
0.0105185
0.0105185
0.0105185
0.0105185
0.0105185
0.0105185
0.0105185
0.0105187
0.0105191
0.0105195
0.0105197
0.0105197
0.0105197
0.0105196
0.0105196
0.0105196
0.0105197
0.0105198
0.0105203
0.0105206
0.010521
0.0105212
0.0105214
0.0105216
0.0105217
0.010522
0.0105225
0.0105234
0.0105245
0.0105254
0.0105266
0.0105271
0.0105279
0.0105283
0.0105287
0.0105292
0.0105295
0.0105298
0.0105302
0.0105307
0.010531
0.0105321
0.0105329
0.0105346
0.0105356
0.0105373
0.0105389
0.010541
0.0105423
0.0105446
0.0105474
0.0105493
0.0105533
0.0105559
0.0105608
0.0105639
0.0105704
0.0105757
0.0105812
0.0105912
0.0105971
0.0106092
0.010617
0.0106272
0.0106466
0.0106546
0.0106734
0.0106862
0.0107077
0.0107392
0.0107555
0.0107877
0.0108156
0.0108682
0.0109003
0.0109666
0.0110086
0.0110907
0.0111477
0.011227
0.0112846
0.0113577
0.0114213
0.0114915
0.0115482
0.0116281
0.0116783
0.0117692
0.0118216
0.0119039
0.0119591
0.0120442
0.0120977
0.0121934
0.0122464
0.0123408
0.0123995
0.0124793
0.0125666
0.012639
0.0105183
0.0105183
0.0105183
0.0105183
0.0105183
0.0105183
0.0105183
0.0105184
0.0105188
0.0105192
0.0105194
0.0105194
0.0105194
0.0105194
0.0105194
0.0105194
0.0105195
0.0105198
0.0105203
0.0105207
0.0105211
0.0105213
0.0105215
0.0105217
0.0105218
0.010522
0.0105225
0.0105231
0.0105244
0.0105251
0.0105263
0.0105268
0.0105275
0.0105282
0.0105284
0.010529
0.0105293
0.0105299
0.0105301
0.0105309
0.0105315
0.0105325
0.010534
0.0105347
0.0105369
0.0105382
0.0105406
0.0105419
0.0105446
0.0105462
0.0105497
0.0105512
0.0105549
0.010557
0.0105621
0.0105649
0.0105716
0.0105755
0.010584
0.0105894
0.0106008
0.0106067
0.0106211
0.01063
0.0106397
0.0106621
0.010672
0.0106919
0.0107055
0.0107395
0.0107566
0.0107965
0.0108184
0.0108713
0.0109028
0.0109785
0.011018
0.0110961
0.0111496
0.0112298
0.0112884
0.011363
0.0114222
0.0114954
0.0115472
0.0116307
0.0116801
0.0117715
0.0118233
0.0119092
0.0119594
0.0120492
0.0120985
0.0121907
0.0122486
0.0123347
0.0124011
0.0124745
0.0125569
0.0126409
0.0105182
0.0105183
0.0105183
0.0105183
0.0105182
0.0105182
0.0105182
0.0105183
0.0105186
0.010519
0.0105192
0.0105192
0.0105192
0.0105193
0.0105193
0.0105193
0.0105195
0.0105199
0.0105204
0.010521
0.0105212
0.0105215
0.0105217
0.0105218
0.0105219
0.010522
0.0105224
0.0105229
0.010524
0.0105247
0.0105255
0.0105265
0.0105268
0.0105277
0.010528
0.0105285
0.0105288
0.0105295
0.0105299
0.0105308
0.0105319
0.0105327
0.0105341
0.0105363
0.0105375
0.0105392
0.0105418
0.0105431
0.010546
0.0105475
0.0105508
0.0105523
0.0105559
0.0105581
0.0105631
0.0105657
0.010572
0.0105758
0.0105837
0.0105913
0.0105962
0.0106097
0.0106171
0.0106319
0.01064
0.0106583
0.0106717
0.010692
0.0107067
0.0107426
0.0107586
0.0107965
0.010821
0.0108789
0.0109082
0.0109791
0.0110287
0.0111087
0.0111573
0.011236
0.0112928
0.0113709
0.0114279
0.0115046
0.0115576
0.0116371
0.0116879
0.0117769
0.0118277
0.0119148
0.0119646
0.0120532
0.0121036
0.0121912
0.0122524
0.0123317
0.012405
0.0124728
0.0125608
0.0126456
0.0105183
0.0105183
0.0105183
0.0105183
0.0105182
0.0105182
0.0105182
0.0105183
0.0105185
0.0105189
0.010519
0.0105191
0.0105191
0.0105192
0.0105192
0.0105193
0.0105195
0.01052
0.0105207
0.0105212
0.0105215
0.0105218
0.0105218
0.010522
0.0105221
0.0105222
0.0105223
0.0105228
0.0105235
0.0105243
0.010525
0.0105258
0.0105265
0.0105269
0.0105276
0.010528
0.0105286
0.010529
0.0105299
0.0105305
0.010532
0.0105329
0.0105349
0.010537
0.0105381
0.0105409
0.0105422
0.0105449
0.0105462
0.0105491
0.0105506
0.010554
0.0105558
0.01056
0.0105624
0.0105677
0.0105711
0.0105756
0.0105843
0.0105886
0.0105961
0.0106072
0.0106145
0.0106234
0.0106439
0.010652
0.0106715
0.0106845
0.0107122
0.0107283
0.0107654
0.0107851
0.010832
0.0108586
0.0109224
0.0109598
0.0110174
0.0111086
0.0111572
0.0112365
0.0112863
0.0113696
0.0114278
0.0115086
0.0115724
0.0116337
0.0117085
0.0117601
0.0118421
0.0119028
0.0119754
0.012052
0.0121101
0.012195
0.0122443
0.0123387
0.0123911
0.0124876
0.0125459
0.0126609
0.0105184
0.0105184
0.0105184
0.0105184
0.0105183
0.0105183
0.0105183
0.0105183
0.0105185
0.0105188
0.010519
0.0105191
0.0105191
0.0105192
0.0105192
0.0105194
0.0105197
0.0105203
0.0105211
0.0105215
0.0105219
0.010522
0.0105221
0.0105222
0.0105223
0.0105223
0.0105224
0.0105227
0.0105233
0.0105238
0.0105248
0.0105252
0.010526
0.0105264
0.0105271
0.0105275
0.0105282
0.0105286
0.0105297
0.0105304
0.0105322
0.0105332
0.0105357
0.0105369
0.0105397
0.0105411
0.0105432
0.010546
0.0105471
0.0105495
0.0105511
0.0105546
0.0105563
0.0105601
0.0105622
0.0105675
0.0105702
0.0105761
0.0105822
0.0105857
0.0105958
0.0106038
0.0106105
0.0106249
0.0106351
0.0106496
0.0106635
0.0106845
0.0107057
0.0107194
0.0107595
0.0107791
0.0108242
0.0108494
0.0109081
0.0109511
0.0110101
0.0111029
0.0111508
0.0112281
0.0112781
0.0113653
0.011423
0.011503
0.0115646
0.0116267
0.0117052
0.0117555
0.0118432
0.011899
0.0119746
0.0120477
0.0121069
0.012191
0.0122406
0.0123369
0.0123898
0.0124837
0.0125462
0.012656
0.0105186
0.0105186
0.0105187
0.0105186
0.0105186
0.0105185
0.0105185
0.0105185
0.0105186
0.0105189
0.010519
0.0105191
0.0105192
0.0105193
0.0105193
0.0105195
0.0105198
0.0105206
0.0105214
0.0105218
0.0105222
0.0105222
0.0105224
0.0105224
0.0105224
0.0105225
0.0105225
0.0105227
0.010523
0.0105236
0.0105243
0.0105248
0.0105254
0.0105259
0.0105265
0.0105268
0.0105276
0.0105281
0.0105292
0.0105302
0.010532
0.0105334
0.0105357
0.0105373
0.01054
0.0105413
0.0105439
0.0105455
0.0105471
0.01055
0.0105516
0.0105538
0.0105559
0.0105596
0.0105616
0.0105658
0.0105685
0.010575
0.0105783
0.0105858
0.0105908
0.0106012
0.0106076
0.0106219
0.0106291
0.0106478
0.0106574
0.0106801
0.010695
0.0107216
0.0107427
0.0107792
0.0108094
0.010845
0.0108967
0.0109569
0.0109992
0.0110906
0.0111416
0.0112245
0.0112791
0.0113629
0.0114201
0.0114969
0.0115578
0.0116234
0.0117006
0.0117557
0.0118434
0.0118951
0.0119767
0.0120436
0.0121067
0.0121875
0.0122466
0.0123336
0.0124006
0.0124786
0.0125639
0.0126592
0.0105191
0.0105191
0.0105192
0.0105192
0.0105191
0.010519
0.0105189
0.010519
0.010519
0.0105192
0.0105193
0.0105195
0.0105195
0.0105196
0.0105197
0.0105199
0.0105203
0.0105212
0.010522
0.0105225
0.0105227
0.0105228
0.0105228
0.0105228
0.0105228
0.0105228
0.0105228
0.0105229
0.010523
0.0105235
0.0105239
0.0105245
0.010525
0.0105256
0.0105259
0.0105266
0.010527
0.0105278
0.0105286
0.01053
0.0105318
0.0105339
0.0105356
0.0105381
0.01054
0.0105417
0.0105443
0.0105454
0.0105474
0.0105496
0.0105516
0.0105528
0.0105557
0.0105583
0.0105601
0.0105633
0.0105664
0.0105723
0.0105755
0.0105823
0.0105864
0.0105956
0.0106036
0.0106117
0.0106216
0.0106391
0.0106471
0.0106685
0.0106812
0.0107117
0.0107275
0.0107657
0.0107884
0.0108386
0.0108694
0.0109366
0.0109757
0.0110593
0.0111179
0.0112089
0.0112702
0.0113495
0.0114073
0.0114815
0.0115462
0.0116177
0.011694
0.0117548
0.01184
0.0118915
0.011976
0.0120407
0.0121025
0.01219
0.0122459
0.0123342
0.012406
0.0124747
0.0125795
0.0126563
0.0105195
0.0105195
0.0105195
0.0105195
0.0105195
0.0105194
0.0105193
0.0105193
0.0105194
0.0105195
0.0105197
0.0105198
0.0105199
0.0105199
0.01052
0.0105202
0.0105207
0.0105216
0.0105223
0.0105228
0.010523
0.010523
0.0105231
0.010523
0.010523
0.010523
0.010523
0.010523
0.0105231
0.0105234
0.0105238
0.0105244
0.0105247
0.0105253
0.0105256
0.0105262
0.0105266
0.0105275
0.0105283
0.01053
0.0105314
0.010534
0.0105356
0.0105383
0.0105397
0.0105418
0.0105439
0.0105449
0.0105474
0.0105488
0.0105511
0.0105523
0.0105548
0.0105566
0.0105594
0.0105614
0.0105648
0.0105698
0.0105731
0.0105772
0.0105842
0.01059
0.0106002
0.0106058
0.0106189
0.0106279
0.0106449
0.0106584
0.0106731
0.0107026
0.0107187
0.0107561
0.0107774
0.0108292
0.0108592
0.0109235
0.010962
0.0110469
0.0111028
0.0111903
0.0112555
0.0113322
0.0113947
0.0114682
0.0115364
0.0116121
0.0116863
0.0117535
0.0118346
0.0118881
0.0119757
0.0120364
0.0121047
0.0121906
0.0122503
0.0123331
0.0124159
0.0124755
0.0125876
0.012659
0.0105204
0.0105204
0.0105204
0.0105204
0.0105203
0.0105202
0.0105202
0.0105202
0.0105202
0.0105203
0.0105204
0.0105205
0.0105206
0.0105207
0.0105208
0.010521
0.0105215
0.0105223
0.010523
0.0105235
0.0105237
0.0105237
0.0105237
0.0105236
0.0105235
0.0105235
0.0105234
0.0105234
0.0105234
0.0105236
0.0105238
0.0105244
0.0105247
0.0105252
0.0105255
0.010526
0.0105264
0.0105273
0.010528
0.0105297
0.0105312
0.010534
0.0105358
0.0105378
0.0105399
0.0105413
0.0105433
0.0105448
0.0105466
0.0105474
0.0105497
0.0105506
0.0105529
0.0105544
0.0105561
0.0105585
0.0105621
0.0105646
0.0105674
0.0105732
0.0105786
0.0105852
0.0105904
0.0105985
0.0106123
0.0106187
0.0106351
0.0106441
0.0106651
0.0106866
0.0107004
0.0107331
0.0107629
0.0108015
0.0108309
0.0108938
0.0109399
0.011022
0.0110773
0.0111629
0.0112341
0.0113118
0.0113827
0.0114576
0.0115287
0.0116076
0.0116767
0.0117497
0.0118256
0.0118841
0.0119731
0.0120323
0.0121079
0.0121923
0.012251
0.0123394
0.0124185
0.0124833
0.0125962
0.0126681
0.0105209
0.0105209
0.0105209
0.0105209
0.0105209
0.0105208
0.0105207
0.0105207
0.0105207
0.0105208
0.0105209
0.010521
0.0105211
0.0105211
0.0105212
0.0105214
0.010522
0.0105228
0.0105234
0.0105238
0.010524
0.010524
0.010524
0.0105239
0.0105238
0.0105238
0.0105237
0.0105237
0.0105237
0.0105238
0.010524
0.0105245
0.0105248
0.0105252
0.0105255
0.010526
0.0105263
0.0105271
0.0105279
0.0105297
0.0105312
0.0105339
0.0105358
0.0105374
0.01054
0.0105411
0.0105427
0.0105447
0.0105456
0.0105466
0.010549
0.0105498
0.0105519
0.010553
0.010555
0.0105568
0.0105602
0.010562
0.0105655
0.0105705
0.0105736
0.0105808
0.0105849
0.0105945
0.0106031
0.0106098
0.010626
0.0106342
0.0106554
0.0106666
0.0106929
0.0107136
0.0107534
0.0107752
0.0108185
0.0108674
0.0109175
0.0109841
0.0110554
0.0111386
0.0112069
0.0112825
0.0113647
0.0114446
0.0115183
0.0116002
0.0116616
0.0117419
0.0118115
0.0118801
0.0119683
0.0120307
0.0121101
0.0121933
0.0122539
0.0123447
0.0124218
0.0124893
0.0126022
0.0126729
0.0105222
0.0105222
0.0105222
0.0105221
0.0105221
0.010522
0.0105219
0.0105219
0.0105219
0.010522
0.010522
0.0105221
0.0105222
0.0105222
0.0105223
0.0105225
0.010523
0.0105237
0.0105243
0.0105246
0.0105248
0.0105248
0.0105248
0.0105247
0.0105246
0.0105245
0.0105244
0.0105244
0.0105244
0.0105244
0.0105246
0.0105249
0.0105252
0.0105254
0.0105257
0.010526
0.0105263
0.010527
0.0105278
0.0105296
0.010531
0.0105337
0.0105355
0.0105371
0.0105394
0.0105409
0.0105416
0.0105434
0.0105443
0.0105453
0.0105472
0.0105479
0.0105494
0.0105501
0.0105526
0.0105541
0.0105566
0.0105583
0.0105623
0.0105651
0.0105697
0.0105768
0.0105799
0.0105894
0.0105954
0.0106057
0.0106174
0.0106252
0.0106463
0.0106572
0.0106854
0.0107002
0.0107337
0.0107536
0.0108042
0.0108343
0.0108994
0.010942
0.0110151
0.0111079
0.0111835
0.0112607
0.0113445
0.0114284
0.0115026
0.0115886
0.0116503
0.0117354
0.0118016
0.01188
0.0119618
0.0120336
0.0121102
0.0121983
0.0122576
0.0123545
0.012427
0.0125064
0.0126133
0.0126909
0.0105229
0.0105229
0.0105229
0.0105229
0.0105228
0.0105227
0.0105227
0.0105227
0.0105227
0.0105227
0.0105228
0.0105228
0.0105229
0.0105229
0.010523
0.0105232
0.0105236
0.0105243
0.0105247
0.0105251
0.0105252
0.0105252
0.0105252
0.0105251
0.010525
0.0105249
0.0105249
0.0105249
0.0105249
0.0105249
0.0105251
0.0105253
0.0105257
0.0105259
0.0105261
0.0105263
0.0105266
0.0105271
0.0105278
0.0105298
0.0105313
0.0105338
0.0105354
0.0105374
0.0105387
0.0105405
0.0105411
0.0105427
0.0105435
0.0105445
0.0105459
0.0105467
0.0105478
0.0105487
0.0105512
0.010552
0.010554
0.0105556
0.0105592
0.0105619
0.0105656
0.0105711
0.010574
0.0105825
0.0105878
0.0105987
0.0106054
0.010618
0.0106302
0.0106452
0.0106703
0.010683
0.0107112
0.0107313
0.010781
0.0108055
0.0108667
0.0109017
0.0109797
0.0110537
0.0111325
0.0112171
0.0113016
0.0113915
0.011465
0.0115641
0.0116283
0.0117255
0.0117908
0.0118785
0.0119538
0.012036
0.0121088
0.0122034
0.0122607
0.0123616
0.0124301
0.0125193
0.0126131
0.0127081
0.0105245
0.0105245
0.0105244
0.0105244
0.0105244
0.0105243
0.0105242
0.0105242
0.0105242
0.0105242
0.0105243
0.0105243
0.0105243
0.0105244
0.0105244
0.0105246
0.010525
0.0105254
0.0105258
0.010526
0.0105261
0.0105262
0.0105262
0.0105261
0.0105259
0.0105257
0.0105257
0.0105256
0.0105256
0.0105256
0.0105256
0.0105258
0.0105261
0.0105262
0.0105264
0.0105266
0.0105269
0.0105272
0.010528
0.0105299
0.0105316
0.0105338
0.0105354
0.0105374
0.0105383
0.01054
0.0105406
0.010542
0.0105426
0.0105436
0.0105448
0.0105456
0.0105462
0.0105473
0.0105495
0.0105502
0.0105518
0.0105531
0.0105559
0.0105587
0.0105629
0.0105658
0.0105699
0.0105789
0.0105829
0.0105918
0.0105982
0.0106129
0.010622
0.0106397
0.0106569
0.010672
0.010701
0.0107227
0.0107665
0.010792
0.0108489
0.0108864
0.0109622
0.0110339
0.0111121
0.0112001
0.011283
0.0113737
0.0114452
0.0115489
0.0116151
0.0117163
0.0117821
0.0118761
0.0119463
0.012039
0.0121082
0.012206
0.0122663
0.0123725
0.0124379
0.0125452
0.0126214
0.0127361
0.0105254
0.0105254
0.0105253
0.0105253
0.0105253
0.0105252
0.0105251
0.0105251
0.0105251
0.0105251
0.0105251
0.0105252
0.0105252
0.0105252
0.0105253
0.0105254
0.0105257
0.0105262
0.0105265
0.0105267
0.0105269
0.0105269
0.010527
0.0105269
0.0105269
0.0105268
0.0105268
0.0105268
0.0105268
0.0105268
0.0105269
0.010527
0.0105271
0.0105272
0.0105273
0.0105274
0.0105275
0.0105277
0.0105284
0.0105302
0.0105319
0.0105336
0.0105354
0.0105372
0.010538
0.0105394
0.0105399
0.0105412
0.0105418
0.0105424
0.0105433
0.0105442
0.0105446
0.0105454
0.010547
0.0105477
0.0105492
0.0105502
0.0105528
0.0105546
0.0105575
0.0105619
0.0105645
0.0105712
0.0105749
0.0105827
0.010588
0.0106018
0.010609
0.0106239
0.0106351
0.0106552
0.010677
0.0107025
0.0107322
0.01076
0.0108114
0.0108579
0.0109169
0.0109882
0.0110694
0.0111699
0.0112511
0.0113477
0.0114167
0.0115267
0.0115944
0.0117027
0.0117684
0.0118698
0.0119364
0.0120386
0.012105
0.0122114
0.012271
0.0123815
0.0124423
0.0125592
0.0126272
0.0127535
0.0105273
0.0105273
0.0105273
0.0105272
0.0105272
0.0105271
0.0105271
0.010527
0.010527
0.010527
0.010527
0.010527
0.0105269
0.0105269
0.0105269
0.0105269
0.0105271
0.0105273
0.0105275
0.0105275
0.0105276
0.0105276
0.0105276
0.0105275
0.0105274
0.0105274
0.0105273
0.0105273
0.0105273
0.0105274
0.0105275
0.0105276
0.0105277
0.0105279
0.010528
0.0105281
0.0105284
0.0105287
0.0105294
0.0105311
0.0105326
0.0105338
0.0105355
0.0105371
0.0105377
0.010539
0.0105396
0.0105407
0.0105412
0.0105417
0.0105426
0.0105435
0.0105439
0.0105446
0.0105457
0.0105467
0.0105482
0.010549
0.0105513
0.0105531
0.0105556
0.0105598
0.0105624
0.0105676
0.0105725
0.0105781
0.0105845
0.0105968
0.010603
0.0106172
0.0106292
0.010646
0.0106684
0.0106909
0.0107168
0.0107474
0.0107957
0.01084
0.010893
0.0109627
0.0110398
0.0111455
0.011228
0.0113296
0.0114013
0.0115131
0.0115832
0.0116922
0.01176
0.0118627
0.0119286
0.0120382
0.0121031
0.0122148
0.0122786
0.0123937
0.0124607
0.0125788
0.0126534
0.0127805
0.0105284
0.0105284
0.0105283
0.0105283
0.0105283
0.0105282
0.0105281
0.0105281
0.0105281
0.0105281
0.0105282
0.0105282
0.0105283
0.0105284
0.0105284
0.0105285
0.0105287
0.0105289
0.0105291
0.0105293
0.0105293
0.0105293
0.0105292
0.0105291
0.0105289
0.0105288
0.0105287
0.0105286
0.0105286
0.0105286
0.0105287
0.0105287
0.0105288
0.0105287
0.0105287
0.0105287
0.0105288
0.0105291
0.01053
0.0105314
0.0105329
0.010534
0.0105356
0.0105367
0.0105374
0.0105386
0.010539
0.0105398
0.0105402
0.0105406
0.0105413
0.0105419
0.0105422
0.0105426
0.0105436
0.0105448
0.0105458
0.0105464
0.0105484
0.0105499
0.010552
0.0105557
0.0105582
0.0105618
0.0105676
0.0105711
0.0105787
0.0105854
0.0105926
0.0106082
0.0106167
0.0106298
0.0106529
0.0106705
0.0106907
0.0107294
0.010766
0.0108071
0.0108524
0.0109285
0.0109856
0.0110942
0.0111767
0.0112904
0.0113697
0.0114874
0.0115618
0.011675
0.0117468
0.0118547
0.0119234
0.0120372
0.0121036
0.0122162
0.0122826
0.0123966
0.0124694
0.0125843
0.0126673
0.0127913
0.0105308
0.0105307
0.0105307
0.0105306
0.0105305
0.0105304
0.0105302
0.0105301
0.0105299
0.0105298
0.0105296
0.0105295
0.0105294
0.0105294
0.0105294
0.0105294
0.0105296
0.0105297
0.0105299
0.01053
0.0105301
0.0105301
0.0105301
0.01053
0.0105298
0.0105297
0.0105296
0.0105295
0.0105294
0.0105294
0.0105294
0.0105294
0.0105295
0.0105297
0.0105298
0.0105299
0.0105301
0.0105304
0.0105315
0.0105324
0.0105339
0.0105349
0.0105361
0.0105369
0.0105376
0.0105386
0.0105389
0.0105396
0.0105399
0.0105404
0.0105408
0.0105414
0.0105417
0.0105422
0.0105429
0.0105438
0.0105449
0.0105454
0.010547
0.0105486
0.0105507
0.0105538
0.0105563
0.0105597
0.0105652
0.0105686
0.0105758
0.0105815
0.0105902
0.0106041
0.0106118
0.0106248
0.010647
0.010663
0.0106811
0.0107209
0.0107519
0.0107936
0.010833
0.0109112
0.0109636
0.0110659
0.0111498
0.0112674
0.0113504
0.0114692
0.0115467
0.0116622
0.0117381
0.0118484
0.0119235
0.012036
0.0121117
0.0122224
0.0122995
0.0124137
0.0124985
0.0126103
0.0127115
0.0128297
0.0105318
0.0105319
0.0105321
0.0105322
0.0105322
0.0105323
0.0105323
0.0105323
0.0105323
0.0105323
0.0105322
0.0105322
0.010532
0.0105319
0.0105317
0.0105316
0.0105316
0.0105316
0.0105317
0.0105317
0.0105318
0.0105318
0.0105318
0.0105318
0.0105316
0.0105314
0.0105314
0.0105313
0.0105312
0.0105312
0.0105312
0.0105311
0.0105311
0.010531
0.0105309
0.0105308
0.0105308
0.0105308
0.0105312
0.0105317
0.0105331
0.0105341
0.0105356
0.0105364
0.0105372
0.0105383
0.0105386