/*--------------------------------*- C++ -*----------------------------------*\
| =========                 |                                                 |
| \\      /  F ield         | OpenFOAM: The Open Source CFD Toolbox           |
|  \\    /   O peration     | Version:  2.3.1                                 |
|   \\  /    A nd           | Web:      www.OpenFOAM.org                      |
|    \\/     M anipulation  |                                                 |
\*---------------------------------------------------------------------------*/
FoamFile
{
    version     2.0;
    format      ascii;
    class       volScalarField;
    location    "1000";
    object      k_0;
}
// * * * * * * * * * * * * * * * * * * * * * * * * * * * * * * * * * * * * * //

dimensions      [0 2 -2 0 0 0 0];

internalField   nonuniform List<scalar> 
19300
(
0.0105329
0.010533
0.0105332
0.0105333
0.0105334
0.0105334
0.0105335
0.0105335
0.0105335
0.0105335
0.0105334
0.0105334
0.0105333
0.0105331
0.0105329
0.0105328
0.0105327
0.0105326
0.0105326
0.0105325
0.0105324
0.0105323
0.0105321
0.010532
0.0105319
0.010532
0.0105321
0.0105324
0.0105329
0.0105333
0.0105336
0.0105338
0.010534
0.010534
0.010534
0.010534
0.0105339
0.0105338
0.0105336
0.0105335
0.0105335
0.0105335
0.0105335
0.0105337
0.010534
0.0105343
0.0105344
0.0105347
0.0105348
0.0105354
0.0105357
0.0105365
0.0105372
0.010538
0.0105407
0.0105424
0.0105465
0.0105489
0.0105545
0.0105574
0.0105622
0.010566
0.0105703
0.0105764
0.0105797
0.010586
0.0105915
0.0105989
0.0106044
0.0106139
0.010626
0.0106325
0.0106482
0.0106634
0.0106835
0.0106972
0.0107318
0.0107564
0.0107954
0.0108386
0.0108873
0.0109572
0.0110198
0.0111373
0.0112336
0.0113609
0.0114685
0.011565
0.0116787
0.0117705
0.0118744
0.0119767
0.0120704
0.012189
0.0122875
0.0123973
0.012513
0.0126004
0.0127275
0.0128585
0.0105318
0.0105318
0.0105318
0.0105317
0.0105316
0.0105315
0.0105314
0.0105313
0.0105312
0.0105311
0.010531
0.0105308
0.0105307
0.0105306
0.0105306
0.0105305
0.0105305
0.0105305
0.0105305
0.0105306
0.0105306
0.0105306
0.0105306
0.0105307
0.0105308
0.010531
0.0105315
0.0105318
0.0105322
0.0105325
0.0105327
0.0105329
0.010533
0.0105331
0.0105331
0.0105331
0.010533
0.010533
0.010533
0.010533
0.010533
0.0105331
0.0105332
0.0105333
0.0105336
0.0105339
0.0105342
0.0105347
0.0105351
0.0105358
0.0105363
0.0105373
0.0105384
0.01054
0.0105439
0.0105461
0.0105511
0.0105541
0.0105604
0.0105633
0.0105691
0.0105723
0.0105781
0.0105845
0.0105881
0.0105952
0.0106027
0.0106098
0.0106175
0.0106294
0.0106433
0.0106512
0.0106716
0.0106865
0.0107127
0.0107295
0.010768
0.010799
0.0108372
0.0109005
0.0109475
0.0110271
0.0111112
0.0112342
0.0113265
0.0114382
0.011534
0.0116237
0.0117305
0.0118167
0.0119108
0.0120136
0.0121005
0.0122148
0.0123091
0.0124099
0.0125224
0.0126043
0.0127189
0.0128493
0.0105294
0.0105294
0.0105294
0.0105294
0.0105294
0.0105293
0.0105293
0.0105294
0.0105294
0.0105295
0.0105295
0.0105296
0.0105296
0.0105296
0.0105296
0.0105296
0.0105296
0.0105296
0.0105297
0.0105297
0.0105297
0.0105297
0.0105297
0.0105297
0.0105297
0.0105297
0.01053
0.0105305
0.0105312
0.0105317
0.0105322
0.0105324
0.0105326
0.0105327
0.0105327
0.0105327
0.0105327
0.0105325
0.0105324
0.0105324
0.0105324
0.0105324
0.0105325
0.0105327
0.010533
0.0105335
0.0105336
0.0105342
0.0105347
0.0105356
0.0105363
0.0105372
0.0105387
0.0105402
0.0105442
0.0105464
0.0105517
0.0105548
0.0105616
0.0105647
0.0105708
0.0105741
0.0105801
0.0105876
0.010591
0.0105984
0.0106071
0.010614
0.0106226
0.0106344
0.0106501
0.0106582
0.0106791
0.0106947
0.0107236
0.01074
0.0107804
0.0108163
0.0108506
0.0109289
0.0109704
0.0110566
0.0111481
0.0112645
0.0113499
0.0114543
0.0115462
0.0116335
0.0117375
0.0118252
0.0119107
0.012021
0.0121002
0.0122078
0.0123022
0.0123809
0.0124955
0.0125772
0.0126688
0.0128056
0.0105283
0.0105283
0.0105283
0.0105283
0.0105283
0.0105283
0.0105283
0.0105283
0.0105283
0.0105284
0.0105284
0.0105284
0.0105283
0.0105282
0.0105281
0.010528
0.0105279
0.0105278
0.0105278
0.0105278
0.0105277
0.0105277
0.0105277
0.0105278
0.0105279
0.0105281
0.0105288
0.0105295
0.0105303
0.010531
0.0105314
0.0105317
0.0105319
0.010532
0.0105319
0.0105319
0.0105319
0.0105317
0.0105317
0.0105316
0.0105317
0.0105317
0.0105319
0.0105321
0.0105324
0.010533
0.0105334
0.0105342
0.0105346
0.0105356
0.010537
0.0105377
0.0105396
0.0105413
0.010545
0.0105474
0.0105528
0.0105564
0.0105636
0.0105675
0.0105743
0.0105783
0.0105846
0.0105943
0.0105981
0.0106065
0.0106153
0.0106256
0.0106348
0.010647
0.0106646
0.010677
0.0106969
0.0107185
0.010752
0.0107696
0.0108109
0.0108517
0.0108949
0.0109726
0.0110195
0.0111145
0.0112025
0.0113038
0.0113838
0.0114787
0.0115631
0.0116547
0.0117466
0.0118432
0.0119209
0.0120281
0.012105
0.0122011
0.0122996
0.0123735
0.0124855
0.0125703
0.0126534
0.0127921
0.0105263
0.0105263
0.0105263
0.0105263
0.0105263
0.0105263
0.0105264
0.0105264
0.0105265
0.0105266
0.0105267
0.0105267
0.0105267
0.0105266
0.0105265
0.0105265
0.0105265
0.0105265
0.0105265
0.0105267
0.0105268
0.0105269
0.0105269
0.010527
0.0105272
0.0105275
0.0105282
0.0105291
0.0105299
0.0105306
0.0105311
0.0105314
0.0105315
0.0105316
0.0105316
0.0105316
0.0105315
0.0105314
0.0105314
0.0105314
0.0105314
0.0105314
0.0105317
0.0105319
0.0105322
0.010533
0.0105334
0.0105343
0.0105349
0.0105356
0.0105375
0.0105384
0.0105406
0.0105423
0.0105466
0.0105493
0.0105545
0.0105584
0.0105661
0.0105706
0.0105772
0.0105838
0.0105882
0.0106003
0.0106054
0.010615
0.0106218
0.0106368
0.0106451
0.0106625
0.0106726
0.0106934
0.0107085
0.0107336
0.0107687
0.0107889
0.0108271
0.0108661
0.0109194
0.0109882
0.0110453
0.0111416
0.0112256
0.0113226
0.0114022
0.0114949
0.011578
0.011674
0.0117558
0.0118593
0.0119285
0.0120312
0.012108
0.0121909
0.0122952
0.0123553
0.0124569
0.0125508
0.0126221
0.0127562
0.0105254
0.0105254
0.0105254
0.0105254
0.0105254
0.0105254
0.0105255
0.0105255
0.0105257
0.0105258
0.0105259
0.0105259
0.0105259
0.0105258
0.0105257
0.0105257
0.0105257
0.0105257
0.0105257
0.0105258
0.0105259
0.0105259
0.010526
0.010526
0.0105261
0.0105263
0.0105269
0.010528
0.0105289
0.0105297
0.0105303
0.0105307
0.0105309
0.010531
0.0105311
0.0105311
0.0105311
0.010531
0.0105311
0.0105311
0.0105311
0.0105312
0.0105315
0.0105318
0.0105322
0.0105331
0.0105335
0.0105346
0.0105355
0.0105362
0.0105381
0.0105392
0.0105414
0.0105433
0.0105478
0.0105507
0.0105559
0.0105606
0.0105678
0.0105718
0.0105796
0.0105877
0.0105924
0.0106045
0.0106101
0.0106202
0.010629
0.0106426
0.0106512
0.0106712
0.0106842
0.0107012
0.0107206
0.0107443
0.0107767
0.0108076
0.0108417
0.0108909
0.0109426
0.0110064
0.0110943
0.0111843
0.011266
0.0113576
0.0114443
0.011533
0.0116146
0.0117049
0.0117737
0.0118707
0.0119353
0.0120306
0.0121116
0.0121832
0.0122869
0.0123489
0.0124457
0.0125443
0.0126125
0.012744
0.0105238
0.0105238
0.0105238
0.0105238
0.0105238
0.0105238
0.0105239
0.010524
0.0105243
0.0105244
0.0105245
0.0105246
0.0105245
0.0105245
0.0105244
0.0105243
0.0105243
0.0105243
0.0105244
0.0105245
0.0105246
0.0105247
0.0105248
0.0105249
0.010525
0.0105253
0.010526
0.0105273
0.0105284
0.0105294
0.01053
0.0105305
0.0105308
0.0105309
0.010531
0.010531
0.0105311
0.010531
0.0105311
0.0105311
0.0105311
0.0105312
0.0105315
0.0105318
0.0105322
0.0105333
0.0105338
0.0105349
0.010536
0.0105367
0.0105388
0.0105405
0.010542
0.0105444
0.0105494
0.0105531
0.0105567
0.0105635
0.0105708
0.0105751
0.0105835
0.0105903
0.0105957
0.0106095
0.0106161
0.0106264
0.0106409
0.0106494
0.0106604
0.0106838
0.010697
0.0107224
0.0107396
0.0107708
0.0107934
0.0108489
0.0108813
0.0109376
0.0109836
0.0110751
0.0111493
0.011231
0.0113039
0.0113866
0.0114697
0.0115543
0.0116313
0.0117196
0.0117818
0.011877
0.0119417
0.0120284
0.0121123
0.0121804
0.0122817
0.012342
0.0124279
0.0125324
0.0125902
0.0127106
0.010523
0.010523
0.010523
0.010523
0.0105231
0.0105231
0.0105232
0.0105233
0.0105236
0.0105238
0.0105239
0.0105239
0.0105239
0.0105238
0.0105237
0.0105237
0.0105237
0.0105237
0.0105237
0.0105239
0.010524
0.0105242
0.0105243
0.0105244
0.0105245
0.0105248
0.0105255
0.0105268
0.010528
0.010529
0.0105297
0.0105301
0.0105305
0.0105306
0.0105307
0.0105308
0.0105308
0.0105308
0.0105308
0.0105309
0.010531
0.0105311
0.0105315
0.0105319
0.0105326
0.0105335
0.0105343
0.0105353
0.0105369
0.0105377
0.0105395
0.0105418
0.0105432
0.0105464
0.0105496
0.0105553
0.0105588
0.0105665
0.0105721
0.0105798
0.0105878
0.010595
0.0106026
0.0106153
0.0106217
0.0106326
0.0106499
0.0106598
0.010674
0.0106948
0.0107085
0.0107394
0.0107574
0.0107967
0.0108175
0.0108693
0.0109025
0.0109764
0.0110188
0.0111005
0.0111716
0.011252
0.0113234
0.0114025
0.0114844
0.0115664
0.0116418
0.011731
0.0117894
0.0118824
0.0119472
0.0120271
0.0121122
0.0121806
0.0122715
0.0123394
0.012419
0.0125216
0.0125812
0.0127019
0.0105218
0.0105218
0.0105218
0.0105218
0.0105218
0.0105219
0.0105219
0.0105221
0.0105225
0.0105227
0.0105229
0.0105229
0.0105229
0.0105228
0.0105227
0.0105226
0.0105226
0.0105226
0.0105227
0.0105229
0.0105231
0.0105233
0.0105234
0.0105236
0.0105237
0.010524
0.0105248
0.010526
0.0105273
0.0105285
0.0105293
0.0105297
0.0105302
0.0105303
0.0105306
0.0105307
0.0105308
0.0105308
0.0105309
0.010531
0.0105312
0.0105314
0.0105319
0.0105323
0.0105333
0.010534
0.0105355
0.0105363
0.0105382
0.0105395
0.0105411
0.0105441
0.0105458
0.0105495
0.010552
0.0105577
0.0105615
0.0105694
0.0105739
0.0105835
0.0105892
0.0105992
0.0106076
0.0106176
0.010627
0.0106398
0.0106546
0.0106655
0.0106832
0.0107049
0.010719
0.0107479
0.0107719
0.0108101
0.0108354
0.0108802
0.0109309
0.0109977
0.0110448
0.0111333
0.0112029
0.0112866
0.01136
0.0114331
0.011509
0.0115868
0.0116543
0.0117451
0.0117979
0.0118873
0.0119509
0.0120287
0.0121111
0.0121802
0.0122708
0.012337
0.0124107
0.0125135
0.0125706
0.0126825
0.0105212
0.0105212
0.0105212
0.0105212
0.0105213
0.0105213
0.0105214
0.0105215
0.0105219
0.0105223
0.0105224
0.0105224
0.0105224
0.0105223
0.0105222
0.0105221
0.0105221
0.0105222
0.0105223
0.0105225
0.0105227
0.0105229
0.0105231
0.0105232
0.0105234
0.0105237
0.0105244
0.0105257
0.010527
0.0105282
0.010529
0.0105295
0.01053
0.0105302
0.0105305
0.0105306
0.0105308
0.0105308
0.010531
0.0105311
0.0105314
0.0105316
0.0105322
0.0105329
0.010534
0.0105347
0.0105362
0.0105371
0.0105387
0.0105411
0.0105422
0.0105453
0.0105471
0.0105512
0.0105539
0.0105594
0.0105631
0.010571
0.0105762
0.0105858
0.0105911
0.0106012
0.0106117
0.0106188
0.0106338
0.0106445
0.0106557
0.0106796
0.0106911
0.0107084
0.0107404
0.0107548
0.0107943
0.0108172
0.0108716
0.0108966
0.0109613
0.0110206
0.0110756
0.0111628
0.0112313
0.0113126
0.0113833
0.0114526
0.011524
0.0115993
0.0116615
0.0117526
0.0118038
0.0118903
0.0119541
0.0120299
0.01211
0.0121807
0.0122666
0.0123341
0.012409
0.012502
0.0125614
0.0126777
0.0105204
0.0105204
0.0105204
0.0105204
0.0105204
0.0105204
0.0105205
0.0105207
0.0105211
0.0105215
0.0105216
0.0105216
0.0105216
0.0105215
0.0105214
0.0105214
0.0105214
0.0105214
0.0105217
0.0105219
0.0105222
0.0105224
0.0105226
0.0105228
0.0105229
0.0105233
0.010524
0.0105251
0.0105264
0.0105276
0.0105285
0.010529
0.0105296
0.0105299
0.0105303
0.0105305
0.0105307
0.0105309
0.010531
0.0105312
0.0105315
0.0105322
0.0105326
0.0105337
0.0105346
0.0105364
0.0105373
0.0105391
0.0105402
0.0105429
0.0105444
0.0105478
0.0105499
0.0105539
0.0105568
0.0105632
0.0105669
0.0105742
0.0105792
0.0105896
0.0105953
0.0106074
0.0106138
0.0106265
0.0106381
0.0106504
0.0106645
0.0106826
0.0107057
0.0107165
0.0107499
0.0107677
0.0108114
0.010835
0.0108804
0.0109262
0.0109768
0.0110563
0.0111105
0.0111906
0.0112509
0.0113287
0.011398
0.0114659
0.0115348
0.0116089
0.0116681
0.0117593
0.0118106
0.0118946
0.0119574
0.0120326
0.0121082
0.0121829
0.0122631
0.0123355
0.0124067
0.012492
0.0125641
0.0126562
0.01052
0.01052
0.01052
0.01052
0.01052
0.01052
0.0105201
0.0105203
0.0105207
0.0105211
0.0105212
0.0105213
0.0105212
0.0105211
0.0105211
0.0105211
0.0105211
0.0105212
0.0105214
0.0105217
0.0105221
0.0105223
0.0105225
0.0105226
0.0105228
0.0105231
0.0105238
0.0105249
0.0105261
0.0105273
0.0105283
0.0105288
0.0105295
0.0105297
0.0105302
0.0105305
0.0105307
0.0105309
0.0105312
0.0105314
0.0105317
0.0105327
0.0105334
0.0105347
0.0105355
0.0105372
0.0105383
0.0105406
0.0105417
0.0105444
0.0105459
0.0105491
0.010552
0.0105556
0.0105588
0.0105647
0.0105689
0.0105757
0.0105801
0.010591
0.0105967
0.010609
0.0106154
0.0106284
0.0106414
0.0106505
0.0106713
0.0106821
0.0107096
0.0107237
0.010753
0.0107726
0.0108127
0.010854
0.0108836
0.0109401
0.0109859
0.0110793
0.0111315
0.011209
0.0112701
0.011348
0.0114156
0.011485
0.0115462
0.0116229
0.0116761
0.0117669
0.0118185
0.0119002
0.0119598
0.0120388
0.0121027
0.0121904
0.0122537
0.0123386
0.0124034
0.0124856
0.0125659
0.0126485
0.0105195
0.0105195
0.0105195
0.0105195
0.0105195
0.0105195
0.0105196
0.0105197
0.0105201
0.0105205
0.0105207
0.0105207
0.0105207
0.0105206
0.0105206
0.0105206
0.0105207
0.0105209
0.0105213
0.0105217
0.010522
0.0105222
0.0105224
0.0105226
0.0105227
0.010523
0.0105236
0.0105244
0.0105256
0.0105265
0.0105276
0.0105281
0.0105289
0.0105293
0.0105297
0.0105302
0.0105304
0.0105307
0.0105312
0.0105317
0.010532
0.0105332
0.010534
0.0105356
0.0105366
0.0105383
0.01054
0.010542
0.0105433
0.0105457
0.0105484
0.0105503
0.0105544
0.0105569
0.0105618
0.0105649
0.0105715
0.0105767
0.0105824
0.0105923
0.0105982
0.0106104
0.0106179
0.0106287
0.0106476
0.0106554
0.0106744
0.0106871
0.0107095
0.0107399
0.0107559
0.0107886
0.0108171
0.0108691
0.0109012
0.0109671
0.0110091
0.0110919
0.0111487
0.0112281
0.0112852
0.0113588
0.0114222
0.0114919
0.0115494
0.0116288
0.0116799
0.011771
0.0118226
0.0119051
0.0119605
0.0120453
0.0120997
0.0121952
0.0122478
0.0123425
0.0123994
0.0124814
0.0125673
0.0126389
0.0105193
0.0105194
0.0105194
0.0105193
0.0105193
0.0105193
0.0105194
0.0105195
0.0105199
0.0105203
0.0105204
0.0105205
0.0105204
0.0105204
0.0105204
0.0105205
0.0105205
0.0105208
0.0105214
0.0105217
0.0105221
0.0105223
0.0105225
0.0105227
0.0105228
0.010523
0.0105235
0.0105241
0.0105254
0.0105261
0.0105273
0.0105278
0.0105286
0.0105292
0.0105294
0.01053
0.0105303
0.0105308
0.0105311
0.0105319
0.0105325
0.0105336
0.010535
0.0105358
0.010538
0.0105392
0.0105417
0.0105429
0.0105457
0.0105472
0.0105507
0.0105522
0.0105559
0.010558
0.0105631
0.0105659
0.0105727
0.0105765
0.0105851
0.0105905
0.0106019
0.0106078
0.0106223
0.0106307
0.0106412
0.0106631
0.0106727
0.0106927
0.0107066
0.0107407
0.0107576
0.0107972
0.0108192
0.0108723
0.010904
0.0109794
0.0110188
0.0110967
0.0111504
0.011231
0.0112891
0.0113639
0.011423
0.0114956
0.0115484
0.0116317
0.0116818
0.0117733
0.0118246
0.0119104
0.0119609
0.0120505
0.0120999
0.0121928
0.0122497
0.0123365
0.0124012
0.0124759
0.0125585
0.0126407
0.0105193
0.0105193
0.0105193
0.0105193
0.0105192
0.0105192
0.0105192
0.0105193
0.0105196
0.01052
0.0105202
0.0105202
0.0105203
0.0105203
0.0105203
0.0105203
0.0105205
0.0105209
0.0105215
0.010522
0.0105222
0.0105225
0.0105227
0.0105228
0.0105229
0.0105231
0.0105234
0.0105239
0.010525
0.0105257
0.0105265
0.0105275
0.0105279
0.0105287
0.010529
0.0105295
0.0105298
0.0105305
0.0105309
0.0105319
0.0105329
0.0105337
0.0105352
0.0105374
0.0105385
0.0105403
0.0105428
0.0105441
0.010547
0.0105485
0.0105517
0.0105533
0.0105569
0.0105591
0.0105641
0.0105667
0.0105731
0.0105768
0.0105849
0.0105922
0.0105972
0.010611
0.0106183
0.0106328
0.0106409
0.0106596
0.0106727
0.0106927
0.010708
0.0107437
0.0107592
0.0107975
0.0108221
0.0108797
0.0109089
0.0109808
0.0110294
0.0111091
0.0111576
0.011237
0.0112938
0.011372
0.0114288
0.0115054
0.0115586
0.011638
0.0116896
0.0117786
0.0118292
0.0119162
0.011966
0.0120546
0.0121047
0.0121932
0.0122533
0.0123335
0.0124054
0.0124741
0.0125628
0.0126456
0.0105193
0.0105193
0.0105193
0.0105193
0.0105192
0.0105192
0.0105192
0.0105193
0.0105195
0.0105199
0.0105201
0.0105201
0.0105202
0.0105202
0.0105202
0.0105203
0.0105206
0.0105211
0.0105218
0.0105223
0.0105225
0.0105228
0.0105229
0.010523
0.0105231
0.0105232
0.0105234
0.0105238
0.0105246
0.0105254
0.0105261
0.0105268
0.0105275
0.010528
0.0105286
0.010529
0.0105296
0.01053
0.0105309
0.0105315
0.010533
0.010534
0.010536
0.010538
0.0105392
0.0105419
0.0105432
0.0105459
0.0105472
0.0105501
0.0105516
0.010555
0.0105568
0.0105609
0.0105634
0.0105687
0.010572
0.0105767
0.0105853
0.0105895
0.0105972
0.0106082
0.0106153
0.0106249
0.0106449
0.0106529
0.0106724
0.0106856
0.0107132
0.0107293
0.0107663
0.010786
0.0108328
0.0108595
0.0109234
0.0109605
0.0110193
0.0111099
0.0111576
0.011237
0.0112871
0.0113713
0.0114293
0.0115105
0.0115728
0.011635
0.011709
0.0117612
0.011844
0.0119038
0.0119778
0.012053
0.0121117
0.0121957
0.0122455
0.01234
0.0123921
0.0124888
0.012548
0.0126627
0.0105194
0.0105194
0.0105195
0.0105194
0.0105194
0.0105193
0.0105193
0.0105194
0.0105195
0.0105198
0.01052
0.0105201
0.0105202
0.0105202
0.0105203
0.0105204
0.0105207
0.0105214
0.0105222
0.0105225
0.0105229
0.010523
0.0105231
0.0105232
0.0105233
0.0105233
0.0105235
0.0105237
0.0105243
0.0105248
0.0105258
0.0105262
0.010527
0.0105274
0.0105282
0.0105285
0.0105292
0.0105296
0.0105307
0.0105314
0.0105332
0.0105343
0.0105368
0.010538
0.0105408
0.0105421
0.0105443
0.010547
0.0105481
0.0105505
0.0105522
0.0105556
0.0105572
0.010561
0.0105631
0.0105685
0.0105712
0.0105771
0.010583
0.0105866
0.0105971
0.0106046
0.0106115
0.0106261
0.010636
0.0106506
0.0106646
0.0106858
0.0107061
0.0107203
0.0107611
0.0107802
0.0108247
0.0108501
0.0109092
0.010952
0.0110122
0.0111041
0.0111508
0.0112285
0.0112793
0.0113671
0.0114242
0.0115046
0.0115647
0.0116283
0.0117059
0.011757
0.0118451
0.0118998
0.0119769
0.0120484
0.0121084
0.0121916
0.0122421
0.0123384
0.0123908
0.0124851
0.0125487
0.0126574
0.0105196
0.0105197
0.0105197
0.0105197
0.0105196
0.0105195
0.0105195
0.0105195
0.0105196
0.0105199
0.0105201
0.0105202
0.0105202
0.0105203
0.0105204
0.0105205
0.0105209
0.0105217
0.0105224
0.0105228
0.0105232
0.0105232
0.0105234
0.0105234
0.0105234
0.0105235
0.0105235
0.0105237
0.010524
0.0105247
0.0105254
0.0105258
0.0105264
0.010527
0.0105275
0.0105278
0.0105287
0.0105292
0.0105303
0.0105312
0.0105331
0.0105345
0.0105368
0.0105384
0.0105411
0.0105423
0.010545
0.0105464
0.0105481
0.010551
0.0105525
0.0105548
0.0105569
0.0105606
0.0105625
0.0105667
0.0105694
0.010576
0.0105792
0.0105868
0.0105918
0.0106022
0.0106086
0.0106229
0.0106301
0.0106488
0.0106584
0.0106813
0.0106959
0.0107226
0.0107438
0.0107804
0.0108097
0.0108464
0.0108984
0.0109568
0.0110001
0.0110924
0.0111422
0.0112257
0.0112804
0.0113645
0.0114211
0.0114981
0.0115581
0.0116252
0.0117014
0.0117575
0.0118449
0.011896
0.0119789
0.012044
0.0121083
0.0121885
0.012248
0.0123354
0.0124014
0.0124802
0.012567
0.0126597
0.0105201
0.0105202
0.0105202
0.0105202
0.0105201
0.01052
0.01052
0.01052
0.01052
0.0105202
0.0105204
0.0105205
0.0105206
0.0105206
0.0105207
0.0105209
0.0105214
0.0105223
0.010523
0.0105235
0.0105237
0.0105238
0.0105238
0.0105238
0.0105238
0.0105238
0.0105238
0.0105239
0.010524
0.0105246
0.0105249
0.0105256
0.010526
0.0105266
0.010527
0.0105276
0.0105281
0.0105289
0.0105297
0.0105311
0.0105329
0.0105351
0.0105367
0.0105392
0.0105411
0.0105427
0.0105453
0.0105463
0.0105485
0.0105506
0.0105525
0.0105538
0.0105567
0.0105592
0.010561
0.0105642
0.0105674
0.0105732
0.0105764
0.0105832
0.0105874
0.0105967
0.0106045
0.0106125
0.0106229
0.0106398
0.0106478
0.0106696
0.0106823
0.0107127
0.0107284
0.0107668
0.0107894
0.0108398
0.0108706
0.0109373
0.0109765
0.0110608
0.0111194
0.0112107
0.0112712
0.0113502
0.0114076
0.0114824
0.0115471
0.0116197
0.0116951
0.0117568
0.0118411
0.0118925
0.0119782
0.0120408
0.0121044
0.0121913
0.012247
0.0123364
0.0124064
0.0124769
0.0125822
0.0126564
0.0105205
0.0105205
0.0105206
0.0105206
0.0105205
0.0105204
0.0105203
0.0105204
0.0105204
0.0105205
0.0105207
0.0105208
0.0105209
0.010521
0.010521
0.0105213
0.0105217
0.0105226
0.0105234
0.0105238
0.010524
0.010524
0.0105241
0.010524
0.010524
0.010524
0.010524
0.010524
0.0105241
0.0105245
0.0105248
0.0105255
0.0105258
0.0105264
0.0105267
0.0105272
0.0105276
0.0105285
0.0105294
0.0105311
0.0105325
0.0105351
0.0105367
0.0105394
0.0105408
0.0105429
0.0105449
0.0105459
0.0105484
0.0105497
0.010552
0.0105532
0.0105557
0.0105575
0.0105603
0.0105623
0.0105658
0.0105707
0.0105739
0.0105782
0.0105852
0.0105911
0.0106011
0.0106067
0.01062
0.010629
0.010646
0.010659
0.0106746
0.0107035
0.0107196
0.010757
0.0107786
0.0108307
0.0108602
0.0109239
0.0109629
0.0110485
0.0111038
0.0111919
0.0112563
0.0113329
0.0113954
0.0114694
0.0115379
0.0116142
0.0116875
0.0117556
0.0118353
0.0118894
0.0119777
0.0120364
0.0121072
0.0121919
0.0122512
0.0123356
0.0124162
0.0124778
0.0125903
0.0126591
0.0105214
0.0105214
0.0105214
0.0105214
0.0105213
0.0105212
0.0105212
0.0105212
0.0105212
0.0105213
0.0105214
0.0105215
0.0105216
0.0105217
0.0105218
0.010522
0.0105225
0.0105234
0.0105241
0.0105245
0.0105247
0.0105247
0.0105247
0.0105246
0.0105245
0.0105245
0.0105244
0.0105244
0.0105244
0.0105246
0.0105249
0.0105254
0.0105257
0.0105263
0.0105265
0.010527
0.0105274
0.0105283
0.0105291
0.0105308
0.0105324
0.0105351
0.0105369
0.0105389
0.0105409
0.0105423
0.0105443
0.0105458
0.0105475
0.0105483
0.0105506
0.0105516
0.0105538
0.0105552
0.010557
0.0105595
0.010563
0.0105654
0.0105683
0.0105743
0.0105796
0.0105861
0.0105912
0.0105998
0.0106132
0.0106195
0.0106359
0.0106451
0.0106668
0.010687
0.0107009
0.0107351
0.0107644
0.0108013
0.0108325
0.0108952
0.0109418
0.0110226
0.0110778
0.0111646
0.0112351
0.0113128
0.0113839
0.0114589
0.0115305
0.0116094
0.0116777
0.0117515
0.0118257
0.0118857
0.0119747
0.0120327
0.0121106
0.0121932
0.0122521
0.012342
0.0124185
0.0124858
0.0125984
0.0126679
0.0105219
0.0105219
0.010522
0.0105219
0.0105219
0.0105218
0.0105217
0.0105217
0.0105218
0.0105218
0.0105219
0.010522
0.0105221
0.0105222
0.0105223
0.0105225
0.010523
0.0105238
0.0105244
0.0105248
0.010525
0.010525
0.010525
0.0105249
0.0105248
0.0105248
0.0105247
0.0105247
0.0105247
0.0105248
0.0105251
0.0105255
0.0105258
0.0105263
0.0105265
0.010527
0.0105273
0.0105282
0.010529
0.0105308
0.0105323
0.010535
0.0105369
0.0105385
0.010541
0.0105421
0.0105437
0.0105456
0.0105465
0.0105475
0.01055
0.0105508
0.0105528
0.0105538
0.0105559
0.0105577
0.010561
0.0105629
0.0105664
0.0105714
0.0105745
0.0105818
0.0105859
0.0105957
0.0106039
0.0106109
0.010627
0.0106352
0.0106564
0.0106675
0.0106945
0.0107152
0.0107542
0.0107758
0.0108206
0.0108686
0.0109186
0.0109853
0.0110565
0.0111395
0.0112073
0.011284
0.0113667
0.0114462
0.01152
0.0116011
0.0116621
0.0117433
0.0118117
0.0118823
0.0119697
0.0120316
0.0121126
0.0121941
0.0122551
0.0123472
0.0124217
0.0124921
0.0126042
0.0126724
0.0105232
0.0105232
0.0105232
0.0105232
0.0105231
0.010523
0.010523
0.010523
0.010523
0.010523
0.0105231
0.0105231
0.0105232
0.0105233
0.0105234
0.0105236
0.0105241
0.0105248
0.0105253
0.0105256
0.0105258
0.0105258
0.0105258
0.0105257
0.0105256
0.0105255
0.0105254
0.0105254
0.0105254
0.0105255
0.0105256
0.0105259
0.0105262
0.0105265
0.0105267
0.010527
0.0105273
0.0105281
0.0105288
0.0105308
0.0105321
0.0105348
0.0105366
0.0105382
0.0105405
0.0105419
0.0105426
0.0105444
0.0105453
0.0105462
0.0105481
0.0105488
0.0105502
0.010551
0.0105536
0.010555
0.0105575
0.0105592
0.0105632
0.010566
0.0105708
0.0105776
0.0105807
0.0105905
0.0105964
0.0106068
0.0106181
0.0106261
0.0106475
0.0106583
0.0106866
0.0107012
0.0107344
0.0107545
0.0108058
0.0108356
0.0109003
0.0109425
0.0110164
0.0111091
0.0111839
0.0112619
0.0113463
0.0114297
0.011504
0.0115893
0.011651
0.0117368
0.0118022
0.0118823
0.0119629
0.012035
0.0121124
0.0121992
0.0122588
0.0123568
0.0124271
0.0125095
0.0126143
0.01269
0.0105239
0.0105239
0.0105239
0.0105239
0.0105238
0.0105237
0.0105237
0.0105237
0.0105237
0.0105237
0.0105238
0.0105238
0.0105239
0.0105239
0.010524
0.0105242
0.0105247
0.0105253
0.0105258
0.0105261
0.0105262
0.0105262
0.0105262
0.0105261
0.010526
0.0105259
0.0105259
0.0105259
0.0105259
0.0105259
0.0105261
0.0105264
0.0105267
0.0105269
0.0105272
0.0105273
0.0105276
0.0105281
0.0105289
0.0105309
0.0105324
0.0105349
0.0105365
0.0105385
0.0105398
0.0105415
0.0105422
0.0105437
0.0105445
0.0105455
0.0105469
0.0105476
0.0105487
0.0105496
0.0105521
0.0105529
0.0105549
0.0105565
0.0105602
0.0105628
0.0105666
0.010572
0.0105748
0.0105836
0.0105888
0.0105996
0.0106063
0.0106191
0.0106311
0.0106468
0.0106711
0.0106838
0.0107122
0.0107328
0.0107824
0.0108066
0.0108677
0.0109029
0.0109819
0.0110547
0.0111331
0.0112186
0.0113032
0.0113924
0.0114663
0.0115653
0.0116295
0.0117272
0.0117918
0.0118806
0.0119549
0.0120376
0.0121107
0.0122043
0.0122618
0.0123636
0.0124304
0.0125223
0.0126139
0.0127081
0.0105255
0.0105255
0.0105255
0.0105254
0.0105254
0.0105253
0.0105253
0.0105252
0.0105253
0.0105253
0.0105253
0.0105253
0.0105254
0.0105254
0.0105255
0.0105256
0.010526
0.0105265
0.0105268
0.0105271
0.0105272
0.0105272
0.0105272
0.0105271
0.0105269
0.0105267
0.0105267
0.0105266
0.0105266
0.0105266
0.0105267
0.0105268
0.0105271
0.0105273
0.0105275
0.0105276
0.0105279
0.0105283
0.0105291
0.0105311
0.0105328
0.0105349
0.0105365
0.0105384
0.0105394
0.010541
0.0105416
0.010543
0.0105436
0.0105446
0.0105457
0.0105465
0.0105471
0.0105482
0.0105504
0.0105511
0.0105526
0.010554
0.0105569
0.0105596
0.0105638
0.0105666
0.010571
0.0105799
0.0105838
0.0105927
0.0105992
0.010614
0.0106231
0.010641
0.0106575
0.0106731
0.0107022
0.0107244
0.0107673
0.0107928
0.01085
0.0108882
0.0109639
0.0110347
0.0111131
0.0112018
0.0112846
0.0113745
0.0114468
0.0115504
0.0116165
0.011718
0.0117831
0.0118779
0.0119474
0.0120406
0.0121097
0.012207
0.0122677
0.0123742
0.0124387
0.0125477
0.0126219
0.0127372
0.0105264
0.0105264
0.0105264
0.0105263
0.0105263
0.0105262
0.0105262
0.0105262
0.0105261
0.0105261
0.0105262
0.0105262
0.0105262
0.0105262
0.0105263
0.0105264
0.0105268
0.0105272
0.0105275
0.0105278
0.0105279
0.010528
0.010528
0.0105279
0.0105279
0.0105278
0.0105278
0.0105278
0.0105278
0.0105278
0.0105279
0.010528
0.0105281
0.0105283
0.0105283
0.0105284
0.0105285
0.0105288
0.0105295
0.0105314
0.010533
0.0105347
0.0105365
0.0105383
0.010539
0.0105404
0.010541
0.0105422
0.0105428
0.0105433
0.0105442
0.0105451
0.0105456
0.0105464
0.0105479
0.0105486
0.0105501
0.0105512
0.0105538
0.0105555
0.0105585
0.0105628
0.0105654
0.0105722
0.0105759
0.0105836
0.010589
0.010603
0.01061
0.0106247
0.0106361
0.0106566
0.0106782
0.0107036
0.0107326
0.0107614
0.0108132
0.0108593
0.0109179
0.0109892
0.0110711
0.0111716
0.0112524
0.0113485
0.0114184
0.0115285
0.011596
0.0117042
0.0117693
0.011871
0.0119374
0.0120402
0.0121063
0.0122126
0.0122722
0.012383
0.0124435
0.0125608
0.0126281
0.0127545
0.0105283
0.0105283
0.0105283
0.0105283
0.0105282
0.0105281
0.0105281
0.0105281
0.010528
0.010528
0.010528
0.010528
0.0105279
0.0105279
0.0105279
0.010528
0.0105281
0.0105283
0.0105285
0.0105286
0.0105286
0.0105286
0.0105286
0.0105285
0.0105284
0.0105284
0.0105284
0.0105283
0.0105283
0.0105284
0.0105285
0.0105286
0.0105288
0.0105289
0.010529
0.0105291
0.0105294
0.0105297
0.0105306
0.0105322
0.0105337
0.0105349
0.0105366
0.0105381
0.0105387
0.01054
0.0105406
0.0105417
0.0105421
0.0105427
0.0105436
0.0105444
0.0105448
0.0105455
0.0105466
0.0105476
0.0105491
0.0105499
0.0105523
0.010554
0.0105566
0.0105608
0.0105634
0.0105686
0.0105735
0.010579
0.0105858
0.0105977
0.0106039
0.0106183
0.0106302
0.0106472
0.0106697
0.0106917
0.0107175
0.0107494
0.0107976
0.0108408
0.0108941
0.0109643
0.0110417
0.0111468
0.011229
0.0113303
0.011403
0.0115148
0.0115847
0.0116936
0.0117609
0.0118636
0.0119298
0.0120397
0.0121043
0.012216
0.0122799
0.0123949
0.0124624
0.0125799
0.0126552
0.0127814
0.0105294
0.0105294
0.0105294
0.0105293
0.0105293
0.0105292
0.0105292
0.0105291
0.0105291
0.0105292
0.0105292
0.0105292
0.0105293
0.0105294
0.0105294
0.0105296
0.0105298
0.01053
0.0105302
0.0105303
0.0105303
0.0105303
0.0105303
0.0105301
0.0105299
0.0105298
0.0105297
0.0105296
0.0105296
0.0105296
0.0105297
0.0105298
0.0105298
0.0105298
0.0105297
0.0105297
0.0105299
0.0105302
0.0105311
0.0105325
0.010534
0.0105351
0.0105367
0.0105378
0.0105385
0.0105396
0.01054
0.0105408
0.0105411
0.0105415
0.0105423
0.0105429
0.0105431
0.0105436
0.0105446
0.0105458
0.0105466
0.0105474
0.0105494
0.0105508
0.010553
0.0105566
0.0105591
0.0105629
0.0105686
0.010572
0.0105798
0.0105862
0.0105939
0.0106093
0.0106175
0.0106311
0.0106542
0.010671
0.0106921
0.0107315
0.0107671
0.0108078
0.0108541
0.01093
0.0109871
0.0110947
0.0111773
0.0112913
0.0113712
0.0114886
0.0115629
0.0116761
0.0117478
0.0118557
0.011925
0.0120386
0.0121051
0.0122174
0.0122839
0.0123978
0.012471
0.0125852
0.0126693
0.0127921
0.0105318
0.0105318
0.0105317
0.0105316
0.0105315
0.0105314
0.0105312
0.0105311
0.010531
0.0105308
0.0105307
0.0105305
0.0105304
0.0105304
0.0105304
0.0105305
0.0105306
0.0105308
0.010531
0.0105311
0.0105311
0.0105311
0.0105311
0.010531
0.0105308
0.0105307
0.0105306
0.0105305
0.0105304
0.0105304
0.0105304
0.0105305
0.0105305
0.0105307
0.0105308
0.0105309
0.0105311
0.0105314
0.0105326
0.0105336
0.010535
0.0105359
0.0105372
0.010538
0.0105386
0.0105396
0.0105399
0.0105406
0.0105409
0.0105414
0.0105418
0.0105423
0.0105426
0.0105431
0.0105438
0.0105448
0.0105458
0.0105464
0.010548
0.0105495
0.0105517
0.0105548
0.0105573
0.0105608
0.0105662
0.0105696
0.0105769
0.0105824
0.0105916
0.0106051
0.0106126
0.0106262
0.0106483
0.0106635
0.0106827
0.0107232
0.0107529
0.0107943
0.0108349
0.0109128
0.010965
0.0110665
0.0111506
0.0112685
0.0113517
0.0114702
0.0115476
0.0116632
0.011739
0.0118496
0.0119251
0.0120373
0.012113
0.0122234
0.0123009
0.0124151
0.0124997
0.0126116
0.0127137
0.0128293
0.0105328
0.0105329
0.0105331
0.0105332
0.0105333
0.0105333
0.0105334
0.0105333
0.0105333
0.0105333
0.0105332
0.0105332
0.010533
0.0105329
0.0105328
0.0105327
0.0105326
0.0105327
0.0105327
0.0105328
0.0105328
0.0105329
0.0105328
0.0105328
0.0105326
0.0105324
0.0105324
0.0105323
0.0105322
0.0105322
0.0105322
0.0105321
0.0105321
0.0105321
0.0105319
0.0105318
0.0105318
0.0105318
0.0105322
0.0105328
0.0105342
0.0105352
0.0105366
0.0105374
0.0105382
0.0105393
0.0105396