/*--------------------------------*- C++ -*----------------------------------*\
| =========                 |                                                 |
| \\      /  F ield         | OpenFOAM: The Open Source CFD Toolbox           |
|  \\    /   O peration     | Version:  2.3.1                                 |
|   \\  /    A nd           | Web:      www.OpenFOAM.org                      |
|    \\/     M anipulation  |                                                 |
\*---------------------------------------------------------------------------*/
FoamFile
{
    version     2.0;
    format      ascii;
    class       volScalarField;
    location    "1000";
    object      nut;
}
// * * * * * * * * * * * * * * * * * * * * * * * * * * * * * * * * * * * * * //

dimensions      [0 2 -1 0 0 0 0];

internalField   nonuniform List<scalar> 
4825
(
0.456234
0.4562
0.456208
0.456219
0.456228
0.456239
0.456254
0.456288
0.456318
0.456364
0.456435
0.456521
0.456568
0.456624
0.456715
0.456837
0.456974
0.457047
0.457129
0.457417
0.457646
0.457859
0.458083
0.4583
0.458531
0.458806
0.459095
0.459424
0.459772
0.460057
0.460273
0.460667
0.461103
0.461722
0.46205
0.462785
0.464185
0.46524
0.466154
0.46809
0.472335
0.411935
0.273075
0.179074
0.129508
0.0843892
0.0605883
0.043698
0.0321983
0.0236445
0.453377
0.453422
0.453533
0.453642
0.453774
0.453914
0.454046
0.454235
0.454405
0.454619
0.454823
0.455051
0.455305
0.45551
0.455749
0.456134
0.45643
0.456613
0.45691
0.457318
0.45756
0.457842
0.458112
0.458366
0.458588
0.458837
0.45923
0.459594
0.459911
0.460292
0.460578
0.461083
0.461636
0.462285
0.462778
0.463652
0.465319
0.466797
0.468129
0.471122
0.428887
0.29766
0.209735
0.153146
0.108274
0.0807336
0.0562341
0.0442924
0.0306726
0.0229533
0.450862
0.45099
0.451267
0.451567
0.451837
0.452132
0.452445
0.452759
0.453097
0.453419
0.45374
0.454032
0.454398
0.454705
0.454958
0.45532
0.455639
0.455848
0.45601
0.456373
0.456698
0.456932
0.457214
0.457472
0.457808
0.458131
0.45855
0.45894
0.459424
0.459922
0.460257
0.460752
0.461394
0.462235
0.462703
0.463546
0.465424
0.467336
0.468879
0.47238
0.358806
0.249241
0.183711
0.133908
0.0973091
0.0725667
0.0520015
0.0397297
0.028524
0.0216972
0.448797
0.448991
0.449393
0.449845
0.450212
0.450611
0.451039
0.451389
0.451857
0.452201
0.4526
0.45299
0.45336
0.453717
0.454052
0.454447
0.454839
0.455122
0.45537
0.455824
0.456197
0.456514
0.456897
0.457251
0.457607
0.457961
0.458377
0.458987
0.459493
0.460021
0.460511
0.460898
0.461784
0.462657
0.463893
0.464602
0.466493
0.468436
0.471682
0.410395
0.297879
0.221651
0.157404
0.116241
0.0882307
0.0654772
0.0477244
0.0364606
0.0283824
0.0218429
0.447143
0.44739
0.44789
0.448459
0.448937
0.449379
0.449962
0.45033
0.450891
0.451324
0.451792
0.452256
0.452672
0.453126
0.453505
0.453898
0.454442
0.454768
0.455102
0.455477
0.455954
0.456282
0.456738
0.457078
0.457483
0.457927
0.458276
0.458838
0.459335
0.45992
0.460699
0.46108
0.461898
0.462577
0.464268
0.465312
0.466955
0.469019
0.444238
0.340152
0.240543
0.192225
0.137931
0.0989814
0.0753965
0.0597958
0.043697
0.0339659
0.0259446
0.0200256
0.445965
0.446246
0.446814
0.447426
0.447997
0.448526
0.449134
0.449607
0.450172
0.450672
0.451145
0.451668
0.452147
0.452643
0.453115
0.453473
0.454045
0.454446
0.454826
0.455155
0.455639
0.456077
0.456484
0.456922
0.457346
0.457794
0.458208
0.458743
0.45933
0.459916
0.460626
0.46143
0.461969
0.462999
0.464572
0.465845
0.467119
0.470192
0.401224
0.296611
0.22527
0.162717
0.134419
0.0942471
0.0697687
0.0600609
0.042166
0.0345731
0.0270988
0.0198642
0.445249
0.445557
0.44618
0.446838
0.447459
0.44806
0.448674
0.449223
0.449807
0.450354
0.450867
0.451402
0.451904
0.452418
0.452899
0.453291
0.453865
0.454333
0.454719
0.455039
0.455556
0.456052
0.456474
0.456953
0.457325
0.457771
0.458252
0.458813
0.45931
0.460082
0.460572
0.461624
0.462256
0.463467
0.464583
0.466615
0.468134
0.449705
0.355099
0.280407
0.18803
0.157612
0.11032
0.0945176
0.0663311
0.0490861
0.0450485
0.0304348
0.0257554
0.0197093
0.44501
0.445325
0.445964
0.446631
0.447265
0.447898
0.448497
0.449091
0.449665
0.450231
0.450761
0.45129
0.451808
0.452333
0.45279
0.45323
0.453752
0.454314
0.454664
0.45499
0.455513
0.456015
0.456447
0.456945
0.457329
0.457757
0.458217
0.458722
0.459398
0.459882
0.460812
0.461403
0.462508
0.463593
0.464447
0.46682
0.468522
0.463382
0.327632
0.281981
0.186304
0.155828
0.110738
0.0901382
0.0698314
0.0468991
0.0460183
0.0301884
0.0257405
0.0208076
0.445251
0.445559
0.44619
0.446816
0.447456
0.448072
0.44865
0.449246
0.449809
0.450347
0.450902
0.451373
0.451929
0.452407
0.452863
0.453309
0.453807
0.454354
0.45471
0.455046
0.455615
0.456031
0.456523
0.456954
0.457379
0.457758
0.458177
0.458757
0.459362
0.459859
0.460844
0.461332
0.462351
0.463446
0.464352
0.466907
0.468365
0.464281
0.338132
0.256425
0.216894
0.142169
0.12069
0.0835979
0.0660793
0.0535989
0.040134
0.0310287
0.0249743
0.0196851
0.445968
0.446249
0.446838
0.447375
0.447989
0.448557
0.449083
0.449652
0.450178
0.450663
0.451218
0.451627
0.452179
0.45261
0.453046
0.453478
0.453955
0.454474
0.454822
0.45518
0.455718
0.456124
0.456597
0.456981
0.457362
0.457716
0.458234
0.458726
0.459193
0.459852
0.460389
0.460944
0.462019
0.46291
0.464466
0.465997
0.467326
0.470569
0.39037
0.305117
0.213598
0.169302
0.119876
0.0964315
0.0692812
0.0574194
0.0414767
0.0337722
0.0253767
0.0209453
0.447146
0.447393
0.447935
0.448332
0.448947
0.44944
0.449907
0.450438
0.450888
0.451318
0.451814
0.452179
0.452721
0.453079
0.453496
0.453891
0.45439
0.45477
0.455081
0.455532
0.455957
0.456375
0.456827
0.457195
0.457474
0.457781
0.458299
0.458804
0.459204
0.459793
0.460218
0.460968
0.461935
0.46267
0.464239
0.465094
0.466549
0.47029
0.451858
0.328908
0.231124
0.181566
0.135672
0.100641
0.0725903
0.0597924
0.0422271
0.0328217
0.026391
0.0197584
0.448799
0.448993
0.44941
0.449747
0.450254
0.450624
0.451038
0.451464
0.451829
0.452222
0.452602
0.452947
0.45335
0.453675
0.454024
0.454412
0.454842
0.455099
0.455414
0.455843
0.456223
0.456587
0.456993
0.457324
0.457646
0.458017
0.458435
0.458857
0.459221
0.459806
0.460253
0.460876
0.461864
0.462419
0.463565
0.464459
0.466196
0.469615
0.471474
0.382398
0.273772
0.212304
0.156626
0.103924
0.0880873
0.0597801
0.0467223
0.0344063
0.0278753
0.0194006
0.450863
0.45099
0.451263
0.451513
0.451868
0.452148
0.452476
0.452783
0.453098
0.4534
0.453703
0.45405
0.454355
0.454697
0.454945
0.455266
0.455654
0.45587
0.456094
0.456457
0.456724
0.456968
0.457285
0.457532
0.457774
0.45814
0.458483
0.458842
0.459221
0.459612
0.459988
0.460529
0.461248
0.461722
0.462758
0.463565
0.465718
0.467835
0.469328
0.45172
0.325731
0.25538
0.172368
0.123894
0.0939768
0.068326
0.0485533
0.0390435
0.0280886
0.020057
0.453379
0.453423
0.453529
0.453635
0.45377
0.453911
0.454088
0.454238
0.454417
0.454597
0.454775
0.455055
0.455286
0.455511
0.455755
0.456115
0.456405
0.456608
0.456952
0.457364
0.457647
0.457894
0.458143
0.45832
0.458572
0.458919
0.459206
0.45941
0.459721
0.46008
0.460413
0.460903
0.461436
0.461929
0.46281
0.463552
0.465454
0.467139
0.468541
0.472204
0.420236
0.294189
0.210027
0.141971
0.105084
0.071233
0.0535657
0.0374673
0.0302606
0.0214168
0.456234
0.456197
0.456204
0.456216
0.456225
0.456237
0.456266
0.456293
0.456327
0.456357
0.456415
0.456498
0.456545
0.456606
0.456714
0.456871
0.456986
0.457085
0.457206
0.457424
0.457686
0.457875
0.458133
0.458318
0.45849
0.458802
0.459091
0.459315
0.45958
0.459935
0.460219
0.4606
0.460883
0.461401
0.462152
0.462582
0.464093
0.465512
0.466667
0.469585
0.4732
0.352373
0.255452
0.174624
0.12855
0.0864465
0.0588602
0.0396385
0.0278545
0.0209185
0.504627
0.499394
0.498591
0.496522
0.494455
0.492639
0.49111
0.489855
0.488762
0.487677
0.486527
0.485176
0.483835
0.482744
0.481861
0.481101
0.480317
0.479409
0.478512
0.477849
0.477305
0.476731
0.4762
0.475835
0.475588
0.475513
0.475564
0.475719
0.476134
0.477002
0.478132
0.480252
0.483288
0.487346
0.494356
0.50328
0.514804
0.531972
0.541773
0.528081
0.509223
0.484614
0.443259
0.410758
0.36894
0.326081
0.278134
0.230602
0.181582
0.145861
0.500018
0.494041
0.492644
0.490925
0.489511
0.488363
0.487394
0.486435
0.485406
0.48425
0.482961
0.48168
0.480731
0.480016
0.479351
0.478655
0.477863
0.477038
0.476404
0.476088
0.475631
0.475154
0.474861
0.474686
0.47463
0.474741
0.474915
0.475144
0.475868
0.477085
0.478534
0.48151
0.485047
0.489922
0.497797
0.507031
0.519825
0.532054
0.528119
0.513777
0.494015
0.465594
0.434686
0.401089
0.364375
0.327008
0.286646
0.222516
0.161054
0.12675
0.497371
0.491434
0.490221
0.488884
0.48783
0.486908
0.486038
0.485079
0.483994
0.482778
0.481441
0.480328
0.479591
0.478974
0.478325
0.477591
0.476689
0.475861
0.475432
0.475016
0.47451
0.474119
0.473784
0.473611
0.473582
0.473579
0.473401
0.473633
0.474538
0.475254
0.476055
0.478705
0.481503
0.485134
0.491416
0.498021
0.508215
0.518966
0.521954
0.514619
0.499986
0.481107
0.458034
0.430843
0.398109
0.363582
0.268736
0.150668
0.118864
0.0918255
0.495037
0.486971
0.486455
0.485785
0.485022
0.484224
0.483295
0.482157
0.480903
0.479643
0.47866
0.478042
0.477515
0.4769
0.476174
0.47535
0.474567
0.474125
0.473835
0.473415
0.472917
0.472649
0.472425
0.472307
0.472308
0.472308
0.472314
0.472679
0.473651
0.474295
0.475225
0.477687
0.480252
0.483516
0.489272
0.495178
0.504193
0.514743
0.518212
0.512512
0.49957
0.455203
0.421403
0.37044
0.379834
0.25982
0.203646
0.127327
0.100914
0.0703265
0.493077
0.485121
0.484868
0.484314
0.483525
0.482542
0.481357
0.480078
0.478926
0.478025
0.477415
0.476945
0.476398
0.475633
0.474808
0.474062
0.47353
0.473184
0.472803
0.472262
0.471861
0.471695
0.471447
0.471281
0.471209
0.471063
0.471284
0.471829
0.472051
0.472845
0.474025
0.475331
0.478388
0.481028
0.484652
0.489415
0.495052
0.505558
0.511713
0.508928
0.489191
0.385319
0.332095
0.256624
0.227898
0.155265
0.130671
0.0921348
0.080586
0.058555
0.491677
0.482649
0.482138
0.481341
0.48031
0.479135
0.477951
0.476999
0.476283
0.475754
0.475317
0.474774
0.474042
0.473245
0.472572
0.472071
0.471763
0.471478
0.471032
0.470579
0.470387
0.470252
0.470058
0.469955
0.469868
0.46981
0.47019
0.470752
0.470805
0.471797
0.473407
0.473931
0.475982
0.478529
0.481003
0.48674
0.491538
0.501138
0.508983
0.498238
0.383794
0.287339
0.23817
0.214525
0.190215
0.132396
0.109661
0.0778387
0.0699401
0.0438383
0.490576
0.480687
0.479912
0.478948
0.477906
0.47687
0.476052
0.475478
0.47499
0.474512
0.47395
0.473204
0.472403
0.471824
0.471389
0.47105
0.470712
0.470288
0.469857
0.46956
0.469393
0.469173
0.469011
0.468964
0.468938
0.468995
0.469214
0.469819
0.469664
0.470038
0.471592
0.472488
0.473435
0.476411
0.479371
0.483838
0.487184
0.490912
0.501138
0.457453
0.358539
0.280357
0.222844
0.185139
0.143624
0.107472
0.0837746
0.0615208
0.0600331
0.0379544
0.490154
0.477748
0.476581
0.47559
0.474716
0.47403
0.473561
0.47313
0.472626
0.472024
0.471352
0.470644
0.470101
0.46975
0.469463
0.469131
0.46878
0.468423
0.46813
0.467985
0.467841
0.467662
0.467545
0.46757
0.467682
0.467893
0.46788
0.46815
0.468734
0.469034
0.469865
0.471419
0.471575
0.473801
0.47555
0.478082
0.482072
0.487266
0.497084
0.43131
0.314771
0.248646
0.197896
0.166402
0.120143
0.0974512
0.0725443
0.0614929
0.0444258
0.0362382
0.490051
0.474673
0.473642
0.473114
0.472679
0.472352
0.472007
0.471521
0.470927
0.470261
0.469628
0.469146
0.46884
0.468599
0.468259
0.467909
0.467601
0.467301
0.467051
0.46689
0.466732
0.466627
0.466523
0.466459
0.466532
0.466596
0.46665
0.466627
0.467138
0.467892
0.468032
0.468497
0.469201
0.471528
0.474094
0.475666
0.47964
0.484541
0.492418
0.421941
0.299815
0.227116
0.18138
0.150559
0.109886
0.0956559
0.0623928
0.0546825
0.0398767
0.0381892
0.49046
0.472005
0.471148
0.470815
0.470433
0.46999
0.469419
0.468738
0.468133
0.467644
0.467256
0.467041
0.466852
0.466549
0.466219
0.465983
0.465713
0.465516
0.465387
0.465288
0.465168
0.465089
0.46509
0.465065
0.465004
0.465116
0.465427
0.465386
0.465575
0.466094
0.466286
0.467183
0.468352
0.470397
0.471799
0.472719
0.475483
0.478998
0.485686
0.417301
0.334827
0.244975
0.191372
0.151767
0.104282
0.0860305
0.0618276
0.0498566
0.0382334
0.0304849
0.491293
0.469744
0.468901
0.468533
0.468117
0.46761
0.467052
0.466645
0.466342
0.46611
0.465944
0.465779
0.465483
0.465118
0.464881
0.464707
0.464549
0.464417
0.464333
0.464213
0.464103
0.464043
0.464006
0.464047
0.464084
0.464097
0.46412
0.464346
0.464461
0.465018
0.465078
0.465783
0.467051
0.468043
0.468066
0.469345
0.473865
0.475896
0.478674
0.450125
0.339872
0.233268
0.183194
0.139639
0.101744
0.0862402
0.0591549
0.0477981
0.038005
0.0287345
0.492629
0.467268
0.466339
0.465915
0.465484
0.465052
0.464713
0.46448
0.464228
0.464011
0.463772
0.463498
0.463213
0.463071
0.462943
0.462837
0.462739
0.462701
0.462627
0.462548
0.462544
0.462553
0.462545
0.462588
0.462767
0.462952
0.463157
0.463334
0.46343
0.463772
0.464196
0.464628
0.465734
0.465576
0.466214
0.468018
0.471706
0.474245
0.47524
0.470662
0.369571
0.261787
0.211831
0.160557
0.113247
0.0880939
0.0620864
0.0447095
0.0361861
0.0252442
0.494336
0.464442
0.463587
0.463287
0.463015
0.46282
0.462707
0.462566
0.462431
0.462267
0.462105
0.461925
0.461829
0.461783
0.461726
0.461634
0.461568
0.461524
0.461495
0.461535
0.46154
0.461556
0.461641
0.461766
0.461838
0.461835
0.461981
0.46224
0.462526
0.462791
0.463113
0.463524
0.463797
0.464267
0.46538
0.467554
0.468421
0.469272
0.470982
0.475093
0.47583
0.322037
0.220272
0.158148
0.108985
0.0826811
0.0615421
0.045659
0.0350757
0.0253524
0.496419
0.461662
0.461039
0.460905
0.460796
0.460712
0.460602
0.460459
0.460304
0.460169
0.460017
0.459919
0.459856
0.459806
0.459779
0.459816
0.459803
0.459818
0.459856
0.459911
0.459991
0.460105
0.460261
0.460452
0.460634
0.460836
0.46096
0.46112
0.461427
0.461716
0.462129
0.462446
0.462773
0.463449
0.464725
0.465353
0.465417
0.466929
0.469779
0.473996
0.443758
0.315981
0.233723
0.177755
0.129274
0.0932574
0.0713581
0.0470002
0.0347217
0.0241846
0.498883
0.458977
0.458654
0.458606
0.458557
0.458489
0.4584
0.458337
0.458281
0.458263
0.45828
0.45832
0.458369
0.458424
0.458507
0.458576
0.45861
0.458674
0.458818
0.458904
0.459005
0.459137
0.459314
0.459501
0.459704
0.459888
0.46008
0.460253
0.460512
0.460693
0.461036
0.461554
0.461847
0.462437
0.462718
0.463651
0.464583
0.466088
0.469082
0.471364
0.474755
0.426352
0.307235
0.21372
0.141032
0.0892695
0.0644658
0.0440898
0.0328307
0.023614
0.13393
0.164574
0.20117
0.238137
0.284695
0.329989
0.379119
0.419304
0.453857
0.485394
0.513859
0.532915
0.544957
0.543567
0.523898
0.509126
0.497845
0.490428
0.485168
0.48187
0.479752
0.478267
0.477377
0.476827
0.47653
0.476386
0.47644
0.476621
0.476964
0.47745
0.477922
0.478458
0.479194
0.480058
0.480883
0.481646
0.482366
0.483285
0.484488
0.485842
0.48708
0.48821
0.489301
0.490439
0.49171
0.493303
0.495183
0.497354
0.498964
0.499042
0.122975
0.148836
0.172032
0.207056
0.252656
0.297179
0.340704
0.380176
0.414038
0.453108
0.483245
0.516787
0.542828
0.556342
0.555013
0.533533
0.513333
0.501054
0.492612
0.487228
0.48394
0.481604
0.479957
0.478845
0.478119
0.477616
0.477333
0.477287
0.477352
0.477603
0.478052
0.478376
0.47896
0.479612
0.480439
0.48124
0.482054
0.482711
0.483555
0.484659
0.485909
0.487248
0.488347
0.489597
0.490594
0.491686
0.493296
0.494891
0.497704
0.498817
0.0951053
0.11871
0.143878
0.175128
0.212314
0.260225
0.310071
0.350211
0.381001
0.417781
0.459691
0.493483
0.51759
0.536174
0.552643
0.560321
0.550019
0.528782
0.509583
0.498163
0.491365
0.487017
0.483885
0.481665
0.4803
0.479532
0.478935
0.478519
0.478204
0.478101
0.478241
0.47853
0.47879
0.479338
0.47988
0.480714
0.481461
0.482359
0.483017
0.483942
0.484889
0.486054
0.48723
0.488387
0.48979
0.490611
0.492012
0.493042
0.494795
0.497459
0.0975452
0.110852
0.125912
0.14834
0.182096
0.227481
0.269318
0.313843
0.356431
0.39063
0.421934
0.445799
0.479674
0.513437
0.539978
0.554513
0.564382
0.559299
0.541029
0.521189
0.507761
0.498794
0.492441
0.48795
0.484963
0.483023
0.481599
0.48062
0.479881
0.47944
0.479191
0.479265
0.479302
0.479574
0.479878
0.480389
0.480989
0.481695
0.482576
0.483167
0.484202
0.484946
0.486145
0.487094
0.488442
0.489671
0.490754
0.492128
0.493027
0.495282
0.244317
0.260798
0.248765
0.21706
0.198207
0.206739
0.237434
0.279163
0.313025
0.340503
0.367833
0.409882
0.449407
0.476696
0.50428
0.535135
0.55938
0.573415
0.573971
0.567297
0.552075
0.532473
0.515278
0.503833
0.496433
0.491351
0.487759
0.485346
0.483655
0.482473
0.481561
0.481022
0.480699
0.480529
0.480627
0.480736
0.481201
0.481511
0.482289
0.482785
0.483632
0.484348
0.485233
0.486181
0.487087
0.488479
0.48935
0.490935
0.491728
0.493492
1.36719
1.4835
1.52996
1.35291
0.99617
0.663408
0.42293
0.312575
0.292224
0.305577
0.340348
0.376328
0.395714
0.429292
0.471535
0.499526
0.519084
0.539001
0.555246
0.561918
0.559959
0.552432
0.542255
0.530068
0.518673
0.509523
0.502705
0.497816
0.494099
0.491033
0.48847
0.486276
0.484683
0.483366
0.482741
0.48223
0.482214
0.482225
0.482629
0.483074
0.483572
0.484329
0.484859
0.48586
0.486447
0.487653
0.488326
0.489742
0.490547
0.492036
6.1467
6.36629
6.42831
6.01051
3.886
2.89265
2.00948
1.09258
0.559569
0.38302
0.326178
0.320574
0.355995
0.396247
0.412897
0.433069
0.469831
0.506976
0.538967
0.567455
0.591908
0.618729
0.630788
0.614403
0.586688
0.560531
0.542367
0.530236
0.523454
0.518461
0.512373
0.505118
0.499111
0.494464
0.49099
0.488192
0.486269
0.485169
0.484542
0.484593
0.484538
0.485097
0.485294
0.48606
0.486416
0.487408
0.487933
0.489148
0.48995
0.49122
6.87474
6.63837
7.08716
8.75485
8.80953
7.4788
4.44198
3.34182
2.04584
0.903837
0.539984
0.361481
0.341084
0.342968
0.366148
0.404227
0.444865
0.534384
0.778587
1.25564
1.97392
2.54448
2.72646
2.52256
2.08596
1.63214
1.19825
0.8705
0.691638
0.613059
0.579066
0.563604
0.555507
0.554789
0.556293
0.551087
0.536925
0.520636
0.506871
0.498374
0.493251
0.491176
0.490042
0.490033
0.489654
0.489652
0.489416
0.489755
0.490202
0.490965
2.03816
1.9185
2.22297
3.35054
7.54288
8.84622
8.19489
5.34864
3.75455
2.51097
1.14395
0.632393
0.363722
0.322245
0.354133
0.402907
0.611359
1.23636
2.21925
3.14834
3.83779
4.30591
4.50306
4.51512
4.50635
4.32036
3.8421
3.09833
2.14353
1.31894
0.90868
0.862251
0.994487
1.42423
1.96797
2.15794
1.99206
1.66786
1.28778
0.945595
0.723779
0.630007
0.610228
0.613312
0.623393
0.617967
0.591401
0.55317
0.533037
0.512987
0.716831
0.591632
0.757199
1.46415
3.75418
8.00297
8.47241
7.73661
5.39623
3.77271
2.45119
1.25078
0.559556
0.376796
0.403346
0.687195
1.60693
2.53194
2.82885
2.88054
2.86517
2.86366
3.00767
3.56436
4.47068
4.58365
4.6682
4.70956
4.40811
3.40981
2.25
2.1173
2.46595
3.43062
4.33641
4.54222
4.48933
3.90023
3.47143
3.05515
2.48508
2.19033
2.24782
2.43875
2.60272
2.74358
2.41325
1.90548
1.59158
1.25342
0.700311
0.400463
0.464407
1.0896
2.72579
5.91091
7.81255
7.61617
6.2243
4.76136
3.41474
2.08795
1.01871
0.576842
0.714012
1.65793
2.63482
3.55201
3.95881
4.05756
3.9364
3.60574
3.61347
4.15581
5.61394
5.94915
5.93441
5.93531
6.16773
5.80984
4.64478
4.47537
5.12816
6.47463
6.72904
6.72271
6.67476
6.46071
5.66605
4.51984
4.42356
4.77554
5.33099
6.09261
6.20651
6.16044
5.71264
4.42808
4.1396
4.08182
0.737372
0.363283
0.335452
0.899735
2.48455
4.44994
6.49043
6.77266
5.86551
4.35683
3.18119
2.18374
1.3003
0.889759
1.32161
2.57743
4.73165
5.7336
5.95402
5.91669
4.91532
4.20062
4.18108
5.04802
6.84693
7.18775
7.05156
6.60967
6.14737
5.97215
6.16488
7.76385
8.6326
8.39816
7.8351
7.73613
7.78095
7.62075
6.81834
6.82793
7.4466
9.18961
9.84358
9.68666
9.00001
7.60812
6.964
7.08633
7.4496
8.30343
0.774352
0.366566
0.261907
0.61736
2.53884
3.69661
5.02214
5.50496
5.14744
3.84561
2.70137
1.8042
1.15583
1.15787
2.13349
4.57572
6.47583
6.9807
6.94789
6.53697
5.71611
4.63959
4.35607
5.08133
7.09073
7.64606
7.45106
6.62345
6.08199
6.15792
7.15487
8.3094
8.23093
7.25093
7.03274
7.45428
8.73574
8.80162
8.03145
7.94245
8.43665
8.94046
8.63138
8.38739
8.5641
8.70427
8.60224
8.40529
8.5167
8.55258
0.762457
0.347593
0.217022
0.334318
1.92239
3.46698
3.79547
4.02353
3.79407
2.95322
2.17515
1.50832
1.12916
1.2134
2.15692
4.61874
6.62594
7.11699
7.04972
6.77851
6.30795
5.54425
4.04822
3.67982
4.69956
7.05558
7.49893
7.34149
6.57861
6.46613
6.98357
7.41596
7.27885
6.62942
6.3757
7.05537
8.38431
9.6124
9.45679
8.75003
8.41202
8.04424
6.98928
6.89551
7.3447
8.60755
9.34801
9.27248
8.60941
7.26178
0.589314
0.272428
0.170876
0.232971
0.888384
3.20508
3.54368
3.30449
2.84366
2.23593
1.79849
1.35774
1.18553
1.25889
1.82148
3.92108
6.25238
6.77232
6.77936
6.75737
6.47492
5.83196
4.18843
2.58294
2.56557
3.29058
5.07308
5.63825
5.75587
5.84059
6.00417
6.04099
5.94342
5.71271
5.18927
4.87454
4.98026
5.38741
6.39016
6.7606
6.74031
6.62994
6.07817
4.6185
4.21918
4.43576
4.69499
5.15718
5.35823
5.25186
0.307539
0.176914
0.135702
0.168163
0.325758
1.46273
3.35384
3.51503
3.18802
2.58576
1.82494
1.44466
1.33973
1.4366
1.76361
3.47553
5.72595
6.07663
6.09132
5.79476
5.09924
3.75888
2.07628
1.19993
1.23488
1.83541
2.44824
3.41292
4.18821
4.57614
4.63045
4.57979
4.13382
3.8835
3.61517
2.94283
2.46508
2.5353
2.83131
3.47362
3.74308
3.69824
3.15378
2.6639
2.1081
1.75405
1.70577
1.76029
1.8933
1.62515
0.173947
0.12743
0.129777
0.145021
0.18936
0.404214
1.30419
2.69075
3.45121
3.61536
3.51896
3.25138
2.93292
2.96666
3.54238
4.86007
5.04367
5.16551
4.8962
4.22609
3.02638
1.51065
0.927364
0.680202
0.685721
0.886075
1.66573
3.13317
3.89645
4.01852
3.95999
3.54242
2.92329
2.21708
1.50918
0.991885
0.781177
0.772491
0.82779
0.900547
0.955899
0.926294
0.816023
0.694117
0.604061
0.555207
0.539449
0.534906
0.538738
0.524841
0.120541
0.111636
0.130791
0.142022
0.167865
0.208802
0.338875
0.722695
1.26388
1.9971
3.29998
4.07805
4.47867
4.62807
4.66493
4.75198
4.31676
3.54529
2.56117
1.60288
0.963321
0.677744
0.590216
0.587765
0.6089
0.631173
0.693232
0.797926
0.85969
0.889721
0.847884
0.755698
0.65762
0.584191
0.540651
0.518598
0.507826
0.503072
0.500649
0.499633
0.49732
0.494738
0.491838
0.49023
0.489045
0.489011
0.489115
0.489751
0.490309
0.491057
0.0949407
0.115879
0.139573
0.162774
0.17082
0.194048
0.224792
0.268557
0.372403
0.607147
0.941021
1.24309
1.43913
1.52738
1.41805
1.20751
0.966693
0.753483
0.622683
0.570697
0.564035
0.575975
0.585662
0.594408
0.605459
0.588866
0.564038
0.545135
0.530492
0.518252
0.507803
0.499433
0.494006
0.490535
0.488624
0.487315
0.48633
0.485731
0.485179
0.485068
0.484741
0.485107
0.48519
0.48596
0.486344
0.487395
0.487955
0.489185
0.489984
0.491242
0.0991801
0.121834
0.143647
0.170968
0.197677
0.209128
0.22655
0.253927
0.281667
0.310294
0.339647
0.37408
0.409584
0.433059
0.453371
0.473715
0.49476
0.515845
0.538214
0.551879
0.564327
0.57941
0.586122
0.573619
0.556756
0.533833
0.515157
0.503154
0.495427
0.490279
0.486965
0.484796
0.483603
0.482753
0.482457
0.482208
0.482337
0.4824
0.482754
0.48316
0.483588
0.484334
0.484824
0.485834
0.486431
0.487663
0.488345
0.489775
0.490565
0.492052
0.106093
0.126335
0.154556
0.178221
0.203788
0.235735
0.250666
0.26111
0.302199
0.342426
0.356591
0.365159
0.421102
0.453859
0.47844
0.500558
0.520013
0.536421
0.550335
0.56616
0.565292
0.547397
0.526101
0.511943
0.502129
0.49496
0.489604
0.485943
0.483615
0.482129
0.48116
0.480644
0.480431
0.480379
0.480574
0.480752
0.481276
0.48159
0.482341
0.482812
0.483638
0.484361
0.485238
0.486219
0.487108
0.488484
0.489345
0.490934
0.491733
0.493495
0.114811
0.143239
0.167859
0.195777
0.208402
0.22315
0.240971
0.273819
0.27405
0.278149
0.335963
0.431162
0.470581
0.491401
0.50871
0.523422
0.532238
0.536096
0.533127
0.521869
0.512019
0.503222
0.496233
0.49098
0.486978
0.483946
0.481823
0.480493
0.479723
0.479288
0.479028
0.479081
0.479179
0.4795
0.479873
0.480393
0.481002
0.481653
0.482529
0.483152
0.484208
0.484983
0.486166
0.487115
0.488452
0.489697
0.490803
0.492145
0.493036
0.495199
0.120997
0.152811
0.167105
0.167182
0.173941
0.199103
0.223581
0.251228
0.303075
0.351494
0.383748
0.465251
0.504616
0.518462
0.519663
0.522346
0.520129
0.51527
0.506141
0.498709
0.492997
0.488566
0.485264
0.482794
0.480997
0.479625
0.478741
0.478308
0.478084
0.478044
0.478247
0.478608
0.478906
0.479449
0.47995
0.480706
0.481428
0.482344
0.483024
0.483935
0.484891
0.48601
0.487186
0.488372
0.4898
0.490616
0.49201
0.493038
0.494828
0.497416
0.136132
0.165249
0.149726
0.157647
0.157733
0.179443
0.206928
0.25565
0.280224
0.334604
0.469366
0.504544
0.513632
0.517909
0.519551
0.518801
0.513689
0.503201
0.494923
0.489146
0.485022
0.482258
0.480513
0.47921
0.478258
0.47765
0.477382
0.477383
0.477394
0.477633
0.478066
0.478404
0.478977
0.479587
0.48041
0.48125
0.482057
0.482743
0.48357
0.484659
0.485903
0.487256
0.488372
0.489606
0.490585
0.491668
0.493289
0.494894
0.49771
0.498833
0.139641
0.142296
0.135985
0.151165
0.159384
0.17602
0.182614
0.22103
0.299837
0.449909
0.514233
0.520354
0.520771
0.519911
0.51342
0.50248
0.495468
0.489926
0.485966
0.483093
0.480786
0.479273
0.477996
0.477135
0.476668
0.476478
0.47653
0.476657
0.476953
0.477441
0.477941
0.478448
0.479161
0.480036
0.480859
0.481645
0.48236
0.483258
0.484478
0.485846
0.48709
0.488212
0.489306
0.490437
0.49172
0.493307
0.495194
0.497362
0.498975
0.499049
0.122022
0.115314
0.113575
0.119676
0.131179
0.157761
0.19033
0.223379
0.270802
0.396916
0.521822
0.519712
0.512774
0.50475
0.497318
0.491207
0.487145
0.483667
0.480658
0.478861
0.477448
0.476537
0.475892
0.475531
0.47549
0.4756
0.475866
0.476165
0.476674
0.477305
0.477852
0.478485
0.479378
0.480299
0.481109
0.48188
0.482742
0.483834
0.485181
0.486539
0.487686
0.488764
0.489857
0.491117
0.492644
0.494459
0.496533
0.498604
0.499421
0.50462
0.0971218
0.0989999
0.106556
0.119142
0.131029
0.155506
0.185313
0.234312
0.284831
0.378281
0.47826
0.521916
0.514565
0.506432
0.499158
0.492447
0.488199
0.484708
0.481388
0.479452
0.477662
0.47644
0.475605
0.474897
0.474639
0.474547
0.474717
0.474872
0.47511
0.47563
0.476097
0.476399
0.476979
0.477851
0.478653
0.479367
0.480028
0.480733
0.481677
0.48296
0.484261
0.485414
0.486438
0.4874
0.488366
0.489511
0.490932
0.492648
0.494042
0.500026
0.0704525
0.0816805
0.0831936
0.0928529
0.102184
0.132855
0.152317
0.197794
0.2517
0.3432
0.440879
0.519885
0.507402
0.498155
0.491541
0.486225
0.482894
0.479836
0.477609
0.476923
0.475371
0.474187
0.474114
0.473752
0.473421
0.473464
0.473625
0.473829
0.474095
0.474532
0.475033
0.47545
0.475858
0.476651
0.477578
0.47834
0.478993
0.479595
0.480324
0.481433
0.482787
0.484004
0.485082
0.486046
0.486909
0.48783
0.48889
0.490224
0.491445
0.497377
0.0550365
0.0700161
0.0724896
0.0893335
0.0999425
0.121307
0.143988
0.190978
0.237243
0.32149
0.422495
0.515548
0.504188
0.495514
0.489204
0.484529
0.48128
0.47809
0.47641
0.475961
0.474436
0.473222
0.473073
0.472648
0.472283
0.472259
0.472293
0.472499
0.472651
0.472908
0.473419
0.473844
0.474162
0.474574
0.475323
0.476175
0.476925
0.477516
0.47805
0.478652
0.479634
0.48091
0.482161
0.483306
0.484225
0.485027
0.485791
0.486462
0.486977
0.495042
0.0451991
0.0590857
0.059498
0.0711422
0.083955
0.106019
0.123408
0.174885
0.213249
0.277838
0.355738
0.500638
0.498517
0.491047
0.484953
0.48165
0.478325
0.475648
0.474525
0.473429
0.472522
0.47194
0.471646
0.471471
0.471332
0.471289
0.471325
0.471489
0.471756
0.471845
0.472242
0.472769
0.47317
0.47353
0.474039
0.474787
0.475637
0.47639
0.476959
0.47741
0.478005
0.478914
0.480075
0.48136
0.482544
0.483532
0.48432
0.484877
0.485128
0.493077
0.0346246
0.0492611
0.0537103
0.0684609
0.0792496
0.10248
0.126191
0.167497
0.213125
0.284063
0.363624
0.497132
0.494843
0.488949
0.483064
0.480021
0.476982
0.47489
0.473673
0.471212
0.471295
0.471019
0.470118
0.470109
0.470144
0.47008
0.469985
0.470045
0.470286
0.470419
0.470548
0.47098
0.471467
0.471781
0.472082
0.472522
0.473216
0.474034
0.474791
0.475321
0.475754
0.476275
0.476994
0.477945
0.479137
0.480321
0.481346
0.482151
0.482659
0.491681
0.0321727
0.0425973
0.0501473
0.0600295
0.0727917
0.0878929
0.113072
0.145919
0.200217
0.251674
0.322054
0.448401
0.490485
0.485025
0.479386
0.4766
0.47405
0.473118
0.471104
0.470024
0.47031
0.469335
0.468951
0.468864
0.468867
0.468817
0.468922
0.468968
0.469187
0.469367
0.469534
0.46984
0.470305
0.470739
0.471088
0.471381
0.471796
0.472418
0.473204
0.47395
0.474517
0.474986
0.47548
0.476045
0.476869
0.477911
0.478947
0.479913
0.480688
0.490582
0.0308346
0.0348326
0.045818
0.0537619
0.0746639
0.0895141
0.118497
0.141774
0.203936
0.246233
0.329951
0.441657
0.488133
0.482236
0.477944
0.475395
0.473086
0.471606
0.46959
0.469095
0.468637
0.467939
0.467863
0.467666
0.467357
0.467354
0.467441
0.467496
0.467637
0.467871
0.467992
0.46815
0.468408
0.46879
0.469165
0.469482
0.469743
0.470084
0.470634
0.47136
0.472043
0.472636
0.473137
0.473564
0.474031
0.474709
0.475586
0.476575
0.477747
0.49016
0.0289606
0.0324589
0.0457943
0.0522135
0.0682036
0.0807126
0.112137
0.142185
0.19958
0.255009
0.355379
0.453156
0.482005
0.476933
0.474682
0.471766
0.471019
0.470764
0.468876
0.467863
0.467193
0.466932
0.466892
0.466493
0.466429
0.466463
0.46644
0.466468
0.466592
0.466746
0.466913
0.467042
0.467232
0.467552
0.467912
0.468293
0.468605
0.468835
0.469127
0.46963
0.470259
0.470929
0.471512
0.472004
0.472351
0.472677
0.473113
0.473637
0.474671
0.49005
0.0260817
0.0307818
0.0429436
0.0520114
0.0729796
0.0848084
0.114337
0.151172
0.201458
0.271651
0.365739
0.47729
0.478607
0.475282
0.473644
0.469938
0.468304
0.467798
0.467438
0.467047
0.466216
0.465915
0.465642
0.465421
0.465356
0.465199
0.465029
0.465053
0.465047
0.465116
0.465273
0.465408
0.465531
0.46568
0.465922
0.466208
0.466555
0.466851
0.467046
0.467253
0.467629
0.468131
0.468731
0.469419
0.469988
0.470435
0.470819
0.471154
0.472004
0.490458
0.0236137
0.0313043
0.040185
0.0522016
0.0688639
0.0898758
0.120748
0.163059
0.215128
0.296166
0.39576
0.478372
0.473734
0.47197
0.471344
0.469083
0.467265
0.465956
0.465911
0.465551
0.46494
0.464744
0.464415
0.464223
0.464085
0.46403
0.464034
0.464074
0.464096
0.464095
0.464193
0.464325
0.464441
0.464541
0.464703
0.464876
0.465128
0.465475
0.465772
0.46595
0.46611
0.466333
0.466651
0.46705
0.467605
0.468113
0.46853
0.468899
0.469745
0.491292
0.0221463
0.0302197
0.0410451