/*--------------------------------*- C++ -*----------------------------------*\
| =========                 |                                                 |
| \\      /  F ield         | OpenFOAM: The Open Source CFD Toolbox           |
|  \\    /   O peration     | Version:  2.3.1                                 |
|   \\  /    A nd           | Web:      www.OpenFOAM.org                      |
|    \\/     M anipulation  |                                                 |
\*---------------------------------------------------------------------------*/
FoamFile
{
    version     2.0;
    format      ascii;
    class       volScalarField;
    location    "1000";
    object      nut;
}
// * * * * * * * * * * * * * * * * * * * * * * * * * * * * * * * * * * * * * //

dimensions      [0 2 -1 0 0 0 0];

internalField   nonuniform List<scalar> 
19300
(
0.496974
0.496914
0.496944
0.496982
0.497029
0.497057
0.497083
0.497106
0.49712
0.497131
0.497144
0.497167
0.497178
0.497189
0.497195
0.497222
0.49724
0.497286
0.497318
0.497379
0.497439
0.497479
0.497573
0.497635
0.49771
0.497791
0.497854
0.497968
0.498065
0.498137
0.498278
0.498361
0.498474
0.498581
0.498715
0.498775
0.498868
0.499017
0.499109
0.499219
0.499294
0.499423
0.499513
0.499644
0.499738
0.499835
0.500011
0.500097
0.50023
0.500349
0.50051
0.500634
0.500758
0.500867
0.501039
0.501201
0.501434
0.50162
0.501904
0.502092
0.502351
0.502587
0.502826
0.503151
0.503325
0.503636
0.503931
0.504286
0.504537
0.504937
0.505427
0.505655
0.506148
0.506673
0.507338
0.507711
0.508713
0.509548
0.510524
0.512002
0.51331
0.515195
0.517046
0.520247
0.522669
0.526457
0.529069
0.531876
0.53474
0.498302
0.379281
0.300416
0.228045
0.170983
0.140652
0.103577
0.0849634
0.0629971
0.0484846
0.0360954
0.495329
0.495348
0.495361
0.495368
0.495393
0.4954
0.495429
0.495436
0.495475
0.495493
0.495535
0.495593
0.495639
0.49574
0.495805
0.495941
0.49601
0.496143
0.496226
0.496363
0.496461
0.49658
0.496696
0.49683
0.49693
0.497059
0.497206
0.497334
0.497487
0.497604
0.497758
0.497862
0.498005
0.498135
0.498291
0.498373
0.498515
0.498653
0.498766
0.4989
0.499025
0.499163
0.499264
0.499417
0.499535
0.499683
0.499853
0.499957
0.500118
0.500235
0.500386
0.500519
0.500669
0.500829
0.501047
0.501234
0.501499
0.5017
0.502023
0.502225
0.502527
0.502737
0.503021
0.503354
0.503528
0.503846
0.504183
0.504458
0.504748
0.505177
0.505649
0.505919
0.506594
0.507104
0.507952
0.508464
0.509616
0.510683
0.511563
0.513622
0.514956
0.51694
0.519498
0.522673
0.525084
0.528468
0.530624
0.533356
0.515818
0.418485
0.323431
0.262279
0.214204
0.158809
0.138368
0.104365
0.0809142
0.0633905
0.0485882
0.0357032
0.493746
0.493785
0.493844
0.493893
0.494
0.494065
0.494197
0.494269
0.494413
0.494501
0.494631
0.494802
0.494922
0.49508
0.495182
0.49535
0.495443
0.495587
0.495701
0.495816
0.495905
0.496031
0.496128
0.496254
0.496372
0.496492
0.496613
0.496749
0.496923
0.497026
0.497204
0.497323
0.497489
0.49761
0.497783
0.497889
0.497997
0.498179
0.498269
0.498436
0.498535
0.498706
0.49881
0.498989
0.499144
0.499284
0.499477
0.499592
0.499769
0.499918
0.500063
0.50024
0.500385
0.500561
0.500786
0.500981
0.501257
0.50146
0.5018
0.501998
0.502316
0.502517
0.502798
0.503161
0.503338
0.503664
0.504051
0.504336
0.504686
0.505136
0.505716
0.506014
0.506732
0.507264
0.508208
0.508711
0.509879
0.511146
0.511869
0.514305
0.515515
0.517631
0.520428
0.523385
0.525638
0.528854
0.530812
0.533617
0.491749
0.405315
0.323895
0.248464
0.218673
0.159325
0.127433
0.101109
0.0728156
0.060454
0.0444026
0.0335632
0.492296
0.492358
0.492475
0.492555
0.492721
0.492824
0.492986
0.493089
0.493262
0.493375
0.493504
0.493668
0.493794
0.493939
0.494043
0.4942
0.494305
0.494439
0.494581
0.494736
0.494863
0.49506
0.495203
0.495378
0.495565
0.495706
0.495923
0.49607
0.496311
0.496457
0.496646
0.496795
0.497001
0.49714
0.497334
0.497463
0.497618
0.497808
0.497914
0.49813
0.498278
0.498479
0.498593
0.498785
0.498952
0.499104
0.499304
0.499428
0.499612
0.499777
0.499915
0.500096
0.500246
0.500442
0.500673
0.500891
0.50118
0.501404
0.501767
0.501992
0.502348
0.502569
0.50285
0.503307
0.503499
0.503863
0.504233
0.504652
0.505016
0.505456
0.506067
0.506497
0.507158
0.507843
0.508905
0.509441
0.510577
0.511929
0.51284
0.515431
0.516615
0.519065
0.521769
0.524242
0.526604
0.529239
0.531154
0.534271
0.436351
0.35985
0.293023
0.224908
0.185354
0.143709
0.114778
0.0892089
0.0713882
0.0562611
0.0450174
0.0333538
0.490931
0.491015
0.491181
0.491292
0.491514
0.491651
0.491851
0.492002
0.492211
0.492371
0.492542
0.492754
0.492919
0.493128
0.493279
0.493501
0.493658
0.493843
0.494046
0.494244
0.494415
0.494638
0.494808
0.494988
0.495206
0.495345
0.495582
0.495728
0.495966
0.496116
0.496308
0.496464
0.49667
0.496804
0.497011
0.497172
0.497306
0.497507
0.497622
0.497836
0.497967
0.498142
0.498242
0.498427
0.498602
0.498762
0.498957
0.499095
0.499285
0.499472
0.499631
0.499839
0.500029
0.500245
0.500503
0.500726
0.501014
0.501242
0.501621
0.501871
0.502199
0.502522
0.502719
0.503248
0.503488
0.503917
0.504174
0.504766
0.505087
0.505736
0.506076
0.506791
0.507306
0.508093
0.509217
0.509858
0.510939
0.512203
0.513434
0.51585
0.517028
0.519815
0.52234
0.524663
0.527138
0.529465
0.531548
0.50824
0.409456
0.331877
0.276636
0.214423
0.175766
0.141202
0.113084
0.090264
0.073932
0.053857
0.045138
0.0334531
0.489698
0.489801
0.490016
0.490155
0.490421
0.490593
0.490827
0.491022
0.491248
0.491466
0.491661
0.491877
0.492093
0.492319
0.492488
0.492719
0.492908
0.49309
0.49332
0.4935
0.493695
0.493895
0.494095
0.494241
0.494482
0.494628
0.494874
0.495052
0.495319
0.495528
0.495739
0.495941
0.496159
0.496357
0.496556
0.496737
0.496902
0.497127
0.497243
0.497468
0.497642
0.497837
0.497978
0.498193
0.498382
0.498548
0.498784
0.498954
0.499164
0.499369
0.499538
0.499753
0.49996
0.500174
0.500448
0.500669
0.50096
0.50121
0.501577
0.50181
0.502173
0.502563
0.502776
0.503294
0.503553
0.503992
0.504329
0.504865
0.505192
0.505921
0.506395
0.506966
0.507612
0.50836
0.509349
0.510362
0.511233
0.512883
0.514005
0.516094
0.518221
0.521097
0.523084
0.525588
0.528057
0.530528
0.532467
0.46258
0.378664
0.296168
0.252593
0.197354
0.161471
0.130881
0.100806
0.085957
0.063932
0.0525594
0.0402291
0.0335155
0.48856
0.488682
0.488931
0.489116
0.489405
0.489628
0.48988
0.490117
0.490375
0.490624
0.490864
0.491098
0.491338
0.491587
0.491796
0.492045
0.492274
0.492467
0.492741
0.492934
0.493187
0.4934
0.493651
0.493817
0.494098
0.494275
0.494547
0.494756
0.495043
0.495278
0.495504
0.495721
0.495937
0.496157
0.496343
0.496545
0.496707
0.49693
0.497062
0.497284
0.497467
0.497646
0.497793
0.498023
0.498212
0.498382
0.498617
0.498807
0.499003
0.49923
0.499403
0.499613
0.499802
0.50001
0.500274
0.500519
0.500751
0.501089
0.501462
0.501706
0.502112
0.502438
0.502675
0.503264
0.503557
0.503971
0.50455
0.504877
0.505272
0.506142
0.506588
0.50742
0.507978
0.508975
0.509641
0.511286
0.512242
0.513976
0.514878
0.518018
0.519533
0.522291
0.523843
0.526535
0.528472
0.531141
0.49599
0.414458
0.34082
0.276779
0.226871
0.1888
0.149345
0.126502
0.097443
0.0851589
0.0627354
0.0548435
0.0423881
0.0336987
0.487557
0.487696
0.48797
0.488212
0.488506
0.488775
0.489047
0.489322
0.489589
0.48989
0.490143
0.490407
0.490672
0.49094
0.491177
0.491429
0.491703
0.491896
0.492209
0.492393
0.492695
0.492887
0.493182
0.493338
0.493627
0.493825
0.494085
0.494314
0.49459
0.49483
0.495087
0.495281
0.495502
0.49575
0.495931
0.496174
0.496349
0.496572
0.496753
0.496963
0.497158
0.497365
0.49753
0.497777
0.497953
0.49818
0.498385
0.498611
0.498819
0.499048
0.49923
0.499465
0.49969
0.499933
0.500148
0.500493
0.500737
0.501116
0.501421
0.501809
0.502191
0.502533
0.502865
0.503414
0.503688
0.504115
0.504779
0.505167
0.505653
0.506426
0.506888
0.507868
0.508436
0.509658
0.510293
0.511794
0.512746
0.515027
0.515975
0.518683
0.520101
0.522843
0.524318
0.52696
0.52874
0.53153
0.461121
0.40629
0.315037
0.27627
0.211979
0.1847
0.1412
0.119617
0.0950654
0.0768185
0.0639886
0.0485618
0.0419727
0.0310343
0.48666
0.486813
0.487105
0.487413
0.48769
0.488019
0.488301
0.488614
0.488896
0.489227
0.489513
0.489804
0.490071
0.490365
0.490638
0.490887
0.491196
0.491403
0.491724
0.491944
0.492267
0.492479
0.492781
0.492968
0.493262
0.493484
0.493757
0.494009
0.494291
0.494558
0.494846
0.495052
0.495295
0.495565
0.495755
0.496019
0.496207
0.496425
0.496636
0.496838
0.497039
0.497257
0.497438
0.497677
0.497861
0.498113
0.498306
0.498557
0.498759
0.499001
0.499221
0.499448
0.49969
0.499927
0.500163
0.500463
0.500704
0.501097
0.501348
0.501799
0.502064
0.502511
0.502884
0.5033
0.503688
0.504194
0.504747
0.505158
0.50577
0.506551
0.507019
0.507921
0.508695
0.509894
0.510688
0.512025
0.51324
0.51572
0.516466
0.51933
0.52093
0.523653
0.525397
0.527669
0.529364
0.531973
0.406959
0.366788
0.291016
0.243973
0.193409
0.167824
0.131371
0.105972
0.0933877
0.0689678
0.0620629
0.0482186
0.0398452
0.0332634
0.485898
0.486063
0.486365
0.486735
0.48701
0.487375
0.487659
0.488015
0.488296
0.48867
0.488959
0.489298
0.489578
0.489865
0.490177
0.490416
0.490764
0.49097
0.491317
0.491545
0.491886
0.492104
0.492426
0.492651
0.492919
0.493182
0.493437
0.493713
0.493986
0.494267
0.494583
0.494782
0.495032
0.495303
0.495496
0.495764
0.49597
0.49617
0.496416
0.4966
0.49681
0.497018
0.497264
0.497441
0.497708
0.497904
0.498159
0.498362
0.498609
0.49885
0.499104
0.499324
0.499565
0.499828
0.500073
0.500383
0.500629
0.501033
0.501291
0.501776
0.502038
0.502496
0.502968
0.503257
0.503854
0.504296
0.504688
0.505549
0.506001
0.506559
0.507624
0.508102
0.509341
0.510038
0.51165
0.512396
0.514044
0.516106
0.517231
0.520016
0.521826
0.524056
0.526081
0.528002
0.529789
0.472555
0.418288
0.31665
0.29775
0.221587
0.195479
0.15591
0.131182
0.105768
0.0891265
0.0705555
0.0603543
0.0489516
0.0391437
0.0329225
0.485251
0.485426
0.485722
0.486175
0.486419
0.486834
0.487125
0.487502
0.487799
0.488202
0.488481
0.488869
0.489147
0.489441
0.489801
0.490027
0.490389
0.490634
0.490955
0.491242
0.491548
0.49183
0.492124
0.492412
0.492648
0.492933
0.493204
0.493493
0.493744
0.494058
0.494346
0.494603
0.494835
0.495125
0.495341
0.495599
0.495839
0.496048
0.496307
0.496491
0.496716
0.496928
0.497201
0.497376
0.497659
0.497866
0.498147
0.498345
0.498613
0.498835
0.499102
0.49935
0.4996
0.499865
0.500103
0.500445
0.500708
0.501086
0.501327
0.501825
0.502093
0.502636
0.502912
0.503445
0.503902
0.504383
0.504902
0.505535
0.506363
0.506736
0.507792
0.508371
0.509724
0.510464
0.511709
0.513272
0.514375
0.516993
0.518292
0.52061
0.522318
0.524231
0.526515
0.528281
0.530029
0.449242
0.399272
0.296572
0.275142
0.21769
0.179426
0.154263
0.118097
0.106649
0.0805787
0.0706068
0.0550568
0.0474412
0.0380638
0.0327957
0.484739
0.484923
0.485228
0.485703
0.485968
0.486413
0.486693
0.487106
0.487404
0.487811
0.488108
0.488494
0.488834
0.489095
0.489493
0.489727
0.490094
0.490347
0.49067
0.491001
0.491264
0.491621
0.491858
0.492205
0.492424
0.492726
0.492977
0.493325
0.493529
0.493876
0.494122
0.494456
0.494652
0.494962
0.4952
0.495415
0.495707
0.495904
0.496165
0.496361
0.49661
0.496784
0.497086
0.497289
0.497551
0.497764
0.498035
0.498268
0.498539
0.49876
0.499018
0.499287
0.499539
0.499822
0.500064
0.500403
0.500671
0.50106
0.501305
0.501799
0.502077
0.502632
0.502914
0.503452
0.503976
0.504318
0.505098
0.505486
0.50641
0.506908
0.507883
0.50849
0.509641
0.511163
0.511625
0.513606
0.51484
0.517424
0.518933
0.52101
0.522836
0.524912
0.526773
0.528982
0.501343
0.448318
0.349675
0.313731
0.246917
0.211755
0.16754
0.156736
0.111368
0.104196
0.07891
0.0708731
0.0525697
0.0486592
0.036908
0.0356106
0.484349
0.484541
0.484846
0.48534
0.485631
0.486078
0.48638
0.486787
0.487104
0.487511
0.487843
0.488183
0.48859
0.488837
0.489256
0.489496
0.489851
0.490156
0.490458
0.490831
0.491058
0.491452
0.491676
0.492038
0.492281
0.492591
0.492803
0.493175
0.493399
0.493731
0.493971
0.494312
0.494555
0.494824
0.495105
0.495304
0.495618
0.495811
0.496088
0.496291
0.496563
0.49674
0.497017
0.497274
0.4975
0.497768
0.49802
0.498278
0.498522
0.498774
0.499043
0.499293
0.499581
0.499834
0.500147
0.500378
0.500738
0.501058
0.501343
0.501826
0.502102
0.502643
0.50298
0.503407
0.50416
0.504467
0.505147
0.5056
0.506363
0.507396
0.507914
0.508918
0.509797
0.511364
0.512299
0.514224
0.515428
0.517726
0.519311
0.521603
0.523069
0.525354
0.526754
0.529172
0.475114
0.397041
0.358156
0.277841
0.237769
0.209083
0.156507
0.142592
0.116519
0.0895176
0.0852896
0.0612951
0.0574533
0.0434125
0.0397536
0.0315607
0.484092
0.484284
0.484622
0.485073
0.48541
0.485851
0.486165
0.486587
0.486909
0.487303
0.487678
0.487987
0.488418
0.488683
0.489094
0.489358
0.489707
0.490025
0.49033
0.490695
0.490952
0.491331
0.491574
0.491935
0.492169
0.492515
0.492712
0.493075
0.493326
0.493656
0.493906
0.494207
0.494521
0.494738
0.495063
0.495246
0.495568
0.495763
0.496056
0.496239
0.496518
0.496742
0.496973
0.497266
0.497483
0.497771
0.498019
0.498293
0.498524
0.498806
0.499065
0.499334
0.499585
0.499849
0.500148
0.50041
0.500758
0.501015
0.501432
0.501708
0.502236
0.502506
0.503108
0.503475
0.503869
0.504714
0.505068
0.505781
0.506251
0.507369
0.50792
0.509156
0.509832
0.511417
0.512347
0.514528
0.515656
0.517916
0.519249
0.521799
0.523033
0.525582
0.526839
0.529071
0.489105
0.384986
0.3467
0.280231
0.233635
0.199576
0.166452
0.131559
0.120734
0.0929649
0.0776654
0.0680617
0.0557046
0.0473042
0.0385596
0.0334517
0.483963
0.484159
0.484513
0.48494
0.485313
0.485735
0.486072
0.486488
0.486821
0.487212
0.487598
0.48791
0.488338
0.488624
0.489018
0.489304
0.489642
0.489972
0.490288
0.490633
0.490928
0.491271
0.491544
0.491893
0.492126
0.49248
0.492681
0.49302
0.493292
0.4936
0.49387
0.494141
0.494496
0.494692
0.495015
0.495218
0.49553
0.495721
0.496023
0.496231
0.49649
0.496737
0.496974
0.497264
0.497499
0.497775
0.498034
0.498318
0.498553
0.498822
0.499073
0.49935
0.499606
0.499867
0.500163
0.500416
0.500755
0.501018
0.501408
0.501789
0.502026
0.502624
0.502946
0.503553
0.503864
0.504553
0.505056
0.50576
0.506265
0.507458
0.507972
0.509135
0.509874
0.511605
0.512488
0.514596
0.515805
0.518412
0.519305
0.522037
0.523176
0.525486
0.527274
0.529356
0.462493
0.406176
0.312156
0.286486
0.227646
0.190602
0.165791
0.130998
0.111539
0.0977002
0.0722499
0.0699291
0.0506566
0.0480804
0.0357198
0.0358146
0.483963
0.484159
0.484539
0.48489
0.485347
0.485686
0.486103
0.486467
0.486824
0.487236
0.487563
0.487967
0.488276
0.488696
0.488966
0.489343
0.489619
0.489986
0.490301
0.490607
0.490972
0.491216
0.491597
0.491835
0.492182
0.492422
0.492732
0.492986
0.493292
0.493607
0.493836
0.49418
0.494428
0.494743
0.494948
0.495276
0.495469
0.495774
0.495967
0.496268
0.496468
0.496755
0.496989
0.497265
0.497546
0.49778
0.498063
0.498307
0.498589
0.498826
0.499107
0.499357
0.499618
0.499882
0.500141
0.500451
0.500733
0.501007
0.501435
0.501698
0.502056
0.50257
0.502884
0.503253
0.50406
0.504376
0.505074
0.505527
0.506478
0.507004
0.508195
0.508821
0.510228
0.511022
0.512881
0.514042
0.515342
0.518594
0.519389
0.521928
0.523134
0.525421
0.52716
0.529552
0.449341
0.408253
0.317322
0.2733
0.234645
0.191069
0.159184
0.134394
0.111383
0.0916185
0.0798101
0.0607612
0.0575983
0.0416917
0.0408502
0.03013
0.484093
0.484286
0.484662
0.484996
0.485466
0.485775
0.486211
0.486552
0.486913
0.487325
0.487632
0.488057
0.488338
0.488774
0.489027
0.489411
0.489673
0.49006
0.490353
0.490677
0.491023
0.491268
0.491652
0.491871
0.492241
0.492456
0.492773
0.493015
0.493324
0.493613
0.493851
0.494211
0.494426
0.494756
0.494964
0.495285
0.495476
0.495788
0.495985
0.496286
0.496493
0.496788
0.49702
0.497313
0.497563
0.497838
0.498107
0.498352
0.498644
0.498863
0.499128
0.499385
0.499654
0.499907
0.500157
0.500464
0.500722
0.501041
0.501382
0.501625
0.502086
0.502458
0.502755
0.503375
0.503767
0.504336
0.504831
0.505575
0.506296
0.506756
0.508044
0.508668
0.510039
0.510793
0.512458
0.513826
0.515213
0.518327
0.519337
0.521591
0.522982
0.525373
0.526994
0.529253
0.468642
0.400592
0.315431
0.293316
0.230626
0.19196
0.16128
0.141734
0.108511
0.0949694
0.0787214
0.0652678
0.0555579
0.0460208
0.0396771
0.0327864
0.484351
0.484541
0.484903
0.485246
0.485708
0.485985
0.486437
0.486742
0.487106
0.487518
0.487805
0.488246
0.488503
0.488939
0.489183
0.489554
0.489818
0.490208
0.490464
0.490829
0.491125
0.491399
0.491754
0.491976
0.492342
0.492532
0.492865
0.493103
0.493417
0.493656
0.493938
0.494265
0.494476
0.494808
0.495029
0.495307
0.495525
0.495827
0.496033
0.496303
0.496541
0.496822
0.497062
0.497361
0.4976
0.497885
0.498131
0.498393
0.498647
0.498894
0.499156
0.499411
0.499643
0.499919
0.500181
0.500446
0.500679
0.50103
0.501311
0.501686
0.501943
0.502426
0.502709
0.503325
0.503629
0.504331
0.504692
0.5055
0.506004
0.506897
0.50757
0.508744
0.509598
0.510787
0.512111
0.514105
0.515023
0.517852
0.519132
0.521451
0.523041
0.5253
0.52697
0.529011
0.486226
0.386103
0.342423
0.278916
0.226996
0.201367
0.158275
0.134222
0.111149
0.0949951
0.0732474
0.0684369
0.0499691
0.0477996
0.0357454
0.0336985
0.484742
0.484925
0.485267
0.485622
0.486042
0.486322
0.486766
0.487033
0.487428
0.487793
0.488096
0.488496
0.488767
0.48919
0.489419
0.489784
0.490041
0.490427
0.490676
0.491058
0.491298
0.491614
0.491922
0.492164
0.492505
0.492687
0.493029
0.493249
0.493532
0.493754
0.494094
0.494347
0.494604
0.494883
0.49513
0.495378
0.495613
0.495897
0.496092
0.496365
0.496607
0.496894
0.497128
0.497434
0.497659
0.497942
0.498186
0.498452
0.498667
0.498934
0.499188
0.499409
0.499661
0.499918
0.500152
0.500387
0.500635
0.50098
0.501239
0.501589
0.501838
0.502269
0.502641
0.503
0.503419
0.504113
0.50441
0.505175
0.505625
0.506656
0.507173
0.508372
0.50907
0.510604
0.511502
0.513453
0.514558
0.516899
0.518607
0.521039
0.522909
0.524977
0.526639
0.528789
0.492179
0.423878
0.348344
0.297124
0.245982
0.202577
0.168944
0.137534
0.121941
0.0900552
0.0837759
0.0627064
0.0561583
0.0437289
0.0381702
0.0318666
0.485255
0.48543
0.485741
0.486122
0.486479
0.486769
0.487179
0.487435
0.487839
0.488167
0.488466
0.488837
0.489134
0.489489
0.489735
0.490083
0.490346
0.490704
0.490974
0.491321
0.491548
0.491881
0.492143
0.492406
0.492704
0.492919
0.493235
0.493444
0.493714
0.493942
0.494286
0.494487
0.494791
0.495009
0.495305
0.495511
0.495775
0.496011
0.496235
0.496495
0.496742
0.497001
0.497285
0.497524
0.4978
0.498033
0.498298
0.49855
0.498756
0.499011
0.49926
0.499509
0.499717
0.499964
0.500217
0.500423
0.50068
0.501009
0.501252
0.501528
0.501883
0.502188
0.502661
0.502911
0.503461
0.503827
0.504477
0.504944
0.50547
0.506457
0.506968
0.508136
0.508802
0.510368
0.511244
0.513097
0.514197
0.516608
0.518143
0.52059
0.522422
0.524645
0.526229
0.528483
0.517816
0.426472
0.368718
0.303017
0.245593
0.212611
0.169465
0.145567
0.116875
0.0955569
0.0806832
0.0659964
0.0539087
0.0450374
0.0380058
0.0310288
0.485902
0.486067
0.486352
0.486713
0.487049
0.487329
0.48771
0.487952
0.488357
0.488615
0.488955
0.489254
0.489582
0.48987
0.490137
0.490457
0.490709
0.491047
0.491337
0.491626
0.491885
0.492181
0.492424
0.492698
0.492942
0.493179
0.493474
0.493663
0.493942
0.494154
0.494482
0.494658
0.494967
0.495157
0.495461
0.495638
0.495912
0.496115
0.496351
0.496592
0.496841
0.497101
0.497383
0.4976
0.497885
0.498095
0.498359
0.498604
0.498793
0.499056
0.499267
0.499521
0.499717
0.49994
0.500168
0.500364
0.500643
0.500908
0.501101
0.501451
0.501752
0.502114
0.502377
0.502751
0.503354
0.503617
0.504235
0.504581
0.505346
0.506077
0.50653
0.507619
0.508495
0.509685
0.510561
0.512385
0.513648
0.51611
0.51739
0.520066
0.521799
0.524233
0.52591
0.528226
0.530085
0.453166
0.40209
0.302495
0.276709
0.215742
0.179663
0.152318
0.118577
0.100571
0.0820039
0.0675079
0.0537235
0.0471547
0.0354332
0.0315602
0.486664
0.486816
0.487085
0.487407
0.487713
0.487991
0.488326
0.488579
0.488948
0.489169
0.489502
0.489778
0.490094
0.490338
0.490622
0.490898
0.491164
0.491467
0.49175
0.49201
0.492267
0.49254
0.492768
0.493058
0.493256
0.493517
0.493769
0.493973
0.494228
0.494462
0.494738
0.494941
0.495219
0.495428
0.495704
0.495889
0.496164
0.496331
0.496592
0.496814
0.497077
0.497338
0.497584
0.497824
0.498068
0.498297
0.498544
0.498744
0.498974
0.499218
0.499418
0.499641
0.499838
0.500074
0.500271
0.500456
0.500724
0.500949
0.50116
0.501477
0.501705
0.502069
0.502305
0.502732
0.503114
0.503395
0.504049
0.504358
0.505093
0.505496
0.506395
0.507033
0.508261
0.508929
0.510197
0.511834
0.512858
0.515148
0.516865
0.519564
0.520995
0.523387
0.525391
0.527902
0.529712
0.492177
0.419419
0.324514
0.29825
0.223219
0.19089
0.162044
0.122558
0.108168
0.0854405
0.0698052
0.0575155
0.0465713
0.0398991
0.0305546
0.487561
0.487699
0.487937
0.488236
0.488505
0.488762
0.489059
0.489309
0.489627
0.489816
0.490159
0.490381
0.490694
0.49089
0.491186
0.491419
0.49168
0.491959
0.492214
0.492453
0.4927
0.492948
0.493157
0.493441
0.493611
0.493872
0.494088
0.494283
0.49452
0.494748
0.494984
0.495176
0.495415
0.495622
0.495866
0.496048
0.496307
0.496459
0.49672
0.496933
0.4972
0.497446
0.497692
0.497922
0.49817
0.498385
0.498622
0.498805
0.499038
0.499261
0.499448
0.49968
0.499848
0.50007
0.500269
0.500501
0.500748
0.50094
0.50121
0.501455
0.501736
0.5021
0.502323
0.502743
0.503024
0.503484
0.503949
0.504244
0.505029
0.505424
0.506335
0.506809
0.507861
0.508482
0.509974
0.510869
0.512678
0.513946
0.515787
0.518874
0.520466
0.522927
0.524928
0.527526
0.529285
0.524416
0.438947
0.345293
0.302391
0.235032
0.198688
0.162735
0.126081
0.11288
0.0840424
0.0721205
0.0574961
0.0464869
0.0380642
0.0318352
0.488563
0.488685
0.488897
0.489153
0.489387
0.489635
0.489883
0.490117
0.490389
0.49056
0.490883
0.491068
0.491355
0.491536
0.491815
0.492015
0.492278
0.492513
0.492753
0.492977
0.493205
0.49345
0.493637
0.493914
0.494075
0.494338
0.494527
0.494745
0.49496
0.495208
0.495401
0.495639
0.495821
0.496065
0.496246
0.496443
0.496663
0.496794
0.49705
0.49725
0.497506
0.497716
0.497972
0.498165
0.498418
0.4986
0.498836
0.499008
0.499225
0.499424
0.499595
0.499801
0.499961
0.500158
0.500343
0.50054
0.500729
0.500929
0.501172
0.501414
0.501663
0.501964
0.502184
0.502574
0.502826
0.503318
0.503588
0.504081
0.504549
0.505096
0.505926
0.506339
0.507256
0.507893
0.50941
0.510136
0.511886
0.512907
0.514977
0.517406
0.519161
0.521933
0.523966
0.526598
0.528484
0.531207
0.481803
0.378755
0.333202
0.253453
0.215197
0.172749
0.140427
0.11274
0.0945718
0.0725074
0.0621089
0.0480781
0.0373332
0.0310536
0.4897
0.489804
0.489979
0.490196
0.490398
0.490611
0.490818
0.491035
0.491249
0.491408
0.491696
0.491848
0.4921
0.492259
0.492523
0.492679
0.492925
0.493121
0.493324
0.493529
0.493714
0.493935
0.494083
0.494326
0.494454
0.494686
0.494844
0.495049
0.49524
0.495472
0.495646
0.495869
0.49604
0.496285
0.496451
0.496655
0.496842
0.497014
0.497226
0.497434
0.497701
0.497897
0.498136
0.498337
0.498576
0.498756
0.498988
0.499161
0.499396
0.499571
0.499758
0.499965
0.500143
0.50032
0.50052
0.500735
0.500879
0.50106
0.501259
0.501496
0.501785
0.50198
0.502205
0.502661
0.502884
0.503284
0.503547
0.504111
0.504458
0.5051
0.505696
0.506193
0.507081
0.507752
0.50908
0.509817
0.511455
0.512555
0.514569
0.516894
0.518648
0.521493
0.523559
0.526075
0.528093
0.53084
0.505069
0.414944
0.348079
0.270743
0.231183
0.177294
0.149625
0.116545
0.0950152
0.0753934
0.0626943
0.0492873
0.042919
0.0294588
0.490933
0.491017
0.49115
0.491336
0.49148
0.491685
0.491831
0.492025
0.492181
0.492337
0.492575
0.492719
0.49292
0.493081
0.49331
0.49345
0.493698
0.493856
0.494061
0.494257
0.494449
0.494664
0.49482
0.495049
0.495187
0.495407
0.495536
0.49573
0.495891
0.496072
0.496234
0.496398
0.496554
0.496758
0.496913
0.497102
0.497236
0.497439
0.497603
0.497775
0.498022
0.498205
0.498391
0.498584
0.498794
0.49895
0.499144
0.499293
0.499505
0.499647
0.499814
0.500019
0.500189
0.500348
0.500536
0.500744
0.500885
0.501067
0.501281
0.501465
0.501691
0.501934
0.502145
0.502488
0.502703
0.503066
0.503294
0.503866
0.504144
0.504715
0.505043
0.50583
0.50651
0.507403
0.50823
0.509095
0.510588
0.512078
0.5134
0.515735
0.517668
0.520721
0.522855
0.525342
0.527443
0.530346
0.53225
0.465464
0.372072
0.300327
0.249465
0.194421
0.159899
0.124319
0.0998638
0.0775712
0.0618047
0.0466313
0.0400576
0.0304869
0.492298
0.492359
0.492448
0.492597
0.492684
0.492862
0.492958
0.493116
0.493226
0.493361
0.493529
0.493638
0.493785
0.493903
0.494076
0.494158
0.494337
0.494442
0.494597
0.494736
0.494898
0.495075
0.495224
0.495417
0.495556
0.495757
0.495877
0.496086
0.496227
0.496419
0.496588
0.496736
0.496914
0.49709
0.497244
0.497387
0.497552
0.497762
0.497901
0.498086
0.498333
0.498532
0.498722
0.498917
0.499119
0.499282
0.499477
0.499628
0.499816
0.499937
0.500083
0.500271
0.500422
0.500552
0.500748
0.500935
0.50109
0.501288
0.501464
0.501661
0.501853
0.502117
0.502316
0.502604
0.502877
0.503142
0.503434
0.503965
0.504207
0.504714
0.505089
0.505689
0.506348
0.507106
0.507816
0.508859
0.510235
0.511627
0.512813
0.515211
0.517051
0.520106
0.522321
0.524916
0.5271
0.530045
0.531958
0.493856
0.40611
0.321735
0.264193
0.209127
0.170965
0.135228
0.112651
0.0826334
0.0709009
0.0502661
0.03802
0.0314744
0.493747
0.493785
0.493831
0.493923
0.493975
0.494093
0.494165
0.494298
0.494373
0.494505
0.494641
0.494763
0.494905
0.495056
0.495209
0.495311
0.495478
0.495573
0.49572
0.495814
0.49594
0.496041
0.496163
0.496264
0.496372
0.496512
0.496595
0.496766
0.496875
0.497
0.497146
0.497244
0.497411
0.497539
0.497702
0.497828
0.497942
0.498127
0.498257
0.498426
0.498617
0.498767
0.498923
0.499092
0.49928
0.499437
0.499622
0.499758
0.49994
0.500054
0.500195
0.500368
0.500506
0.50061
0.500793
0.500983
0.501119
0.5013
0.50146
0.501647
0.501817
0.502068
0.502258
0.502478
0.502799
0.502974
0.503319
0.503609
0.503906
0.504531
0.504848
0.505333
0.5061
0.506654
0.507245
0.508515
0.509476
0.510811
0.511929
0.514312
0.515784
0.518826
0.521116
0.524084
0.526372
0.529526
0.531431
0.534615
0.451616
0.343909
0.277821
0.218028
0.170572
0.137141
0.106365
0.0853957
0.0697021
0.0547527
0.0421186
0.0300988
0.495328
0.495347
0.495356
0.49538
0.495383
0.495404
0.495414
0.495447
0.495457
0.495489
0.495535
0.495564
0.495622
0.495725
0.495828
0.495905
0.496047
0.496119
0.49626
0.496349
0.496504
0.496588
0.496723
0.496814
0.496943
0.49707
0.497152
0.497315
0.497421
0.497566
0.49769
0.497813
0.497949
0.498068
0.498214
0.498321
0.49845
0.498604
0.498721
0.498875
0.499053
0.499221
0.499366
0.49952
0.499656
0.499815
0.499993
0.500113
0.500284
0.500405
0.500572
0.500737
0.500882
0.500975
0.501132
0.501302
0.501433
0.501592
0.50174
0.501915
0.502088
0.502346
0.502534
0.502721
0.503032
0.5032
0.50353
0.503765
0.504102
0.504605
0.504871
0.505296
0.506018
0.506535
0.507085
0.508335
0.50916
0.51049
0.511512
0.51385
0.51528
0.518117
0.520433
0.523595
0.525898
0.529116
0.531106
0.534306
0.486663
0.39019
0.320271
0.248741
0.190558
0.153791
0.109545
0.0912884
0.0652901
0.0543327
0.0433104
0.031785
0.496973
0.496914
0.496942
0.496986
0.497017
0.497061
0.497081
0.497104
0.497114
0.497122
0.497136
0.497157
0.497163
0.49718
0.497195
0.49721
0.497253
0.497279
0.497333
0.497375
0.497461
0.49751
0.497604
0.497655
0.497729
0.497814
0.497862
0.49798
0.498047
0.498144
0.498225
0.498305
0.498443
0.498515
0.498658
0.498741
0.498835
0.498982
0.499055
0.499181
0.499311
0.499462
0.499584
0.499711
0.499868
0.49998
0.500147
0.500249
0.500382
0.500465
0.500564
0.500717
0.50085
0.500947
0.50108
0.501264
0.501394
0.501522
0.501696
0.501821
0.50197
0.502176
0.502372
0.502566
0.502845
0.503014
0.503283
0.503485
0.503905
0.504357
0.504555
0.504966
0.505728
0.506191
0.506526
0.507508
0.508235
0.509484
0.51027
0.512197
0.513492
0.515995
0.51807
0.52171
0.523959
0.52727
0.529438
0.532692
0.482181
0.394812
0.308948
0.254346
0.200233
0.1563
0.123935
0.09974
0.0713283
0.0557064
0.0410726
0.0313493
0.55057
0.546471
0.547084
0.546239
0.545316
0.544378
0.543476
0.542526
0.541641
0.540729
0.539859
0.539
0.538156
0.537331
0.536526
0.535738
0.53498
0.534253
0.533561
0.53283
0.532099
0.531472
0.530893
0.530285
0.529683
0.5291
0.528533
0.527952
0.527411
0.526854
0.526324
0.525831
0.525363
0.524881
0.524464
0.524028
0.52362
0.523252
0.522869
0.522525
0.52217
0.521833
0.521538
0.521226
0.520966
0.520696
0.520452
0.520281
0.520079
0.51996
0.519852
0.519774
0.519799
0.51981
0.519921
0.519968
0.520105
0.520434
0.520865
0.521298
0.521929
0.522746
0.523759
0.52485
0.526465
0.528316
0.531087
0.534337
0.538041
0.543046
0.548716
0.556847
0.565559
0.576227
0.588676
0.600517
0.605336
0.60743
0.610333
0.611667
0.613876
0.616027
0.614623
0.60891
0.598928
0.586598
0.572544
0.556329
0.539719
0.520329
0.496637
0.473912
0.441625
0.411453
0.378112
0.343151
0.307845
0.266668
0.236648
0.20618
0.546874
0.54429
0.543914
0.543243
0.542413
0.541537
0.540701
0.539819
0.538995
0.538146
0.537336
0.536535
0.53575
0.534981
0.534232
0.533497
0.532792
0.532116
0.531431
0.530731
0.530141
0.52961
0.529041
0.528429
0.527861
0.527307
0.526742
0.52619
0.525701
0.525217
0.524764
0.524344
0.523943
0.523514
0.52314
0.522784
0.522443
0.522116
0.521788
0.52147
0.521159
0.520879
0.520613
0.520355
0.520124
0.51989
0.519734
0.519591
0.519422
0.519343
0.51928
0.519273
0.519345
0.519407
0.519528
0.519612
0.51986
0.520272
0.520781
0.521311
0.522047
0.523031
0.524146
0.52543
0.527286
0.529548
0.532728
0.536151
0.540162
0.545753
0.551865
0.560428
0.569498
0.580335
0.592441
0.601209
0.604793
0.606163
0.608504
0.609529
0.609832
0.611237
0.60861
0.602488
0.593076
0.581531
0.568097
0.552557
0.536785
0.517503
0.495132
0.472686
0.44248
0.413036
0.381572
0.353425
0.327604
0.300029
0.260607
0.2233
0.545199
0.542262
0.542716
0.542064
0.541262
0.54041
0.539602
0.538744
0.537945
0.537121
0.536334
0.535557
0.534793
0.534047
0.533319
0.532607
0.53192
0.531255
0.530568
0.529915
0.52939
0.528869
0.528279
0.52767
0.527123
0.526576
0.526012
0.525494
0.525034
0.524592
0.524168
0.52376
0.523372
0.522961
0.522581
0.522216
0.52184
0.521478
0.521135
0.520812
0.520498
0.520199
0.519938
0.519664
0.519435
0.519217
0.519011
0.518875
0.518741
0.518618
0.518637
0.518575
0.518607
0.518609
0.518674
0.518928
0.519079
0.519412
0.51993