/*--------------------------------*- C++ -*----------------------------------*\
| =========                 |                                                 |
| \\      /  F ield         | OpenFOAM: The Open Source CFD Toolbox           |
|  \\    /   O peration     | Version:  2.3.1                                 |
|   \\  /    A nd           | Web:      www.OpenFOAM.org                      |
|    \\/     M anipulation  |                                                 |
\*---------------------------------------------------------------------------*/
FoamFile
{
    version     2.0;
    format      ascii;
    class       volScalarField;
    location    "1000";
    object      omega;
}
// * * * * * * * * * * * * * * * * * * * * * * * * * * * * * * * * * * * * * //

dimensions      [0 0 -1 0 0 0 0];

internalField   nonuniform List<scalar> 
19300
(
0.0211919
0.0211947
0.0211938
0.0211924
0.0211906
0.0211895
0.0211885
0.0211875
0.0211869
0.0211864
0.0211859
0.0211848
0.021184
0.0211833
0.0211827
0.0211813
0.0211803
0.0211781
0.0211766
0.0211739
0.0211712
0.0211692
0.0211649
0.021162
0.0211587
0.0211553
0.0211529
0.0211487
0.0211455
0.0211433
0.0211379
0.0211349
0.0211303
0.021126
0.0211203
0.0211177
0.0211136
0.021107
0.0211029
0.021098
0.0210948
0.0210893
0.0210855
0.0210803
0.021077
0.0210736
0.0210663
0.0210632
0.021058
0.021054
0.0210479
0.0210442
0.0210404
0.0210374
0.0210354
0.0210319
0.0210304
0.0210273
0.0210264
0.0210245
0.0210233
0.0210211
0.0210194
0.0210184
0.0210177
0.021017
0.0210159
0.0210159
0.0210164
0.0210179
0.0210224
0.0210261
0.0210359
0.0210435
0.0210574
0.0210686
0.0210932
0.0211086
0.0211435
0.021169
0.0212079
0.021267
0.0213103
0.0214063
0.0214915
0.0215756
0.0216759
0.0217414
0.0218378
0.0219009
0.0220238
0.0221607
0.0223155
0.0226642
0.0229018
0.0233704
0.024024
0.024711
0.0260047
0.0276059
0.0212602
0.0212594
0.0212587
0.0212583
0.0212571
0.0212565
0.0212551
0.0212545
0.0212527
0.0212517
0.0212496
0.0212469
0.0212446
0.0212402
0.0212373
0.0212314
0.0212284
0.0212227
0.0212192
0.0212134
0.0212092
0.0212042
0.0211993
0.0211937
0.0211896
0.0211845
0.0211792
0.0211745
0.0211688
0.0211643
0.0211582
0.0211542
0.0211483
0.021143
0.0211364
0.0211329
0.0211269
0.0211208
0.021116
0.0211104
0.0211052
0.0210995
0.0210955
0.0210893
0.0210848
0.0210792
0.0210725
0.0210692
0.0210631
0.0210597
0.0210543
0.0210507
0.0210465
0.0210429
0.0210413
0.0210379
0.0210367
0.0210341
0.0210332
0.0210307
0.0210297
0.0210273
0.0210267
0.0210262
0.021026
0.0210264
0.0210277
0.0210306
0.0210335
0.0210387
0.0210478
0.0210522
0.0210633
0.0210717
0.0210893
0.0211009
0.0211272
0.0211461
0.0211813
0.0212229
0.0212585
0.0213303
0.0213855
0.0214918
0.0215693
0.0216406
0.0217354
0.0217908
0.021877
0.0219515
0.0220681
0.0222488
0.0223948
0.0227127
0.0230115
0.0234428
0.0241728
0.0248097
0.0260441
0.0277394
0.0213234
0.0213217
0.0213192
0.021317
0.0213124
0.0213096
0.0213039
0.0213008
0.0212947
0.021291
0.0212855
0.0212784
0.0212733
0.0212665
0.0212621
0.0212549
0.0212509
0.0212447
0.0212399
0.0212351
0.0212312
0.0212258
0.0212216
0.0212162
0.0212112
0.0212062
0.0212015
0.0211966
0.0211907
0.0211874
0.0211807
0.0211762
0.0211695
0.0211646
0.0211572
0.0211527
0.0211481
0.02114
0.021136
0.0211289
0.0211247
0.0211175
0.0211133
0.021106
0.0211002
0.0210951
0.0210873
0.0210837
0.021077
0.0210726
0.0210679
0.0210623
0.0210591
0.0210545
0.0210529
0.0210492
0.021048
0.0210455
0.0210448
0.0210429
0.021042
0.0210402
0.02104
0.0210404
0.0210399
0.0210404
0.0210418
0.021044
0.0210463
0.0210502
0.0210584
0.0210621
0.0210724
0.0210811
0.0211003
0.0211115
0.0211401
0.0211611
0.0211955
0.0212488
0.0212805
0.0213587
0.0214181
0.0215205
0.0215915
0.0216555
0.0217504
0.0217988
0.0218856
0.0219674
0.0220719
0.0222805
0.0224246
0.0227239
0.0230706
0.0234542
0.024212
0.0248526
0.0259354
0.0278358
0.021384
0.0213813
0.0213762
0.0213727
0.0213655
0.021361
0.021354
0.0213496
0.0213422
0.0213374
0.0213319
0.0213248
0.0213193
0.0213128
0.021308
0.021301
0.0212964
0.0212904
0.0212842
0.0212775
0.021272
0.0212635
0.0212574
0.0212499
0.0212421
0.0212365
0.0212285
0.0212237
0.0212151
0.0212101
0.0212031
0.0211973
0.0211888
0.0211831
0.0211748
0.0211693
0.0211626
0.0211541
0.0211496
0.0211404
0.0211341
0.0211256
0.0211212
0.0211135
0.0211071
0.0211019
0.0210941
0.0210904
0.0210836
0.0210785
0.0210755
0.0210693
0.0210667
0.0210616
0.0210594
0.0210549
0.0210534
0.021051
0.0210502
0.0210488
0.0210475
0.0210464
0.0210465
0.0210476
0.0210473
0.0210483
0.0210503
0.0210539
0.0210568
0.0210621
0.021072
0.0210792
0.02109
0.0211035
0.0211278
0.0211401
0.0211714
0.0211965
0.0212408
0.021287
0.0213295
0.021411
0.0214678
0.02156
0.0216164
0.0216872
0.021768
0.0218126
0.0219036
0.0220107
0.0221045
0.0223208
0.0225086
0.0227548
0.0231712
0.0235208
0.0242083
0.0249287
0.0258714
0.0276922
0.0214395
0.0214358
0.0214285
0.0214237
0.021414
0.0214081
0.0213994
0.021393
0.0213841
0.0213774
0.0213701
0.0213609
0.0213537
0.0213446
0.0213379
0.0213282
0.0213214
0.0213134
0.0213047
0.0212964
0.0212893
0.0212799
0.0212727
0.0212652
0.0212561
0.0212507
0.0212419
0.0212374
0.021229
0.021224
0.0212167
0.0212107
0.0212022
0.0211967
0.0211878
0.021181
0.0211752
0.0211663
0.0211614
0.0211523
0.0211468
0.0211395
0.0211356
0.0211282
0.0211215
0.0211162
0.0211087
0.0211048
0.021098
0.0210915
0.0210884
0.0210815
0.0210778
0.0210721
0.0210696
0.0210656
0.0210638
0.0210618
0.0210613
0.0210599
0.0210592
0.0210594
0.0210596
0.0210613
0.0210618
0.0210633
0.0210658
0.0210708
0.0210739
0.0210816
0.0210875
0.0210986
0.0211072
0.0211221
0.0211461
0.0211604
0.0211891
0.0212124
0.0212643
0.0212988
0.0213625
0.0214319
0.0214888
0.0215785
0.0216295
0.021709
0.0217805
0.0218277
0.0219296
0.0220447
0.0221381
0.0223438
0.022552
0.0227651
0.0232176
0.023554
0.0241894
0.0249707
0.0258184
0.0275546
0.0214916
0.021487
0.0214776
0.0214715
0.0214599
0.0214524
0.0214422
0.0214339
0.0214244
0.0214151
0.0214068
0.0213974
0.021388
0.021378
0.0213705
0.0213604
0.0213522
0.0213443
0.0213344
0.0213267
0.0213185
0.02131
0.0213015
0.0212953
0.0212851
0.0212792
0.0212697
0.0212642
0.0212546
0.0212474
0.0212396
0.0212317
0.0212228
0.0212147
0.0212062
0.0211986
0.0211916
0.0211818
0.021177
0.0211674
0.0211601
0.0211519
0.0211465
0.0211379
0.0211307
0.0211254
0.0211164
0.0211112
0.0211043
0.021097
0.0210937
0.0210868
0.0210823
0.021077
0.0210743
0.0210708
0.0210688
0.0210675
0.0210669
0.021065
0.0210649
0.0210654
0.0210657
0.0210678
0.0210684
0.0210701
0.0210736
0.0210783
0.0210815
0.0210903
0.0210975
0.021107
0.0211186
0.0211334
0.0211552
0.0211765
0.0212061
0.0212332
0.0212882
0.0213241
0.0214079
0.021463
0.0215368
0.0216069
0.0216708
0.0217376
0.0218108
0.0218612
0.021957
0.02207
0.0221883
0.0223657
0.0226178
0.0228183
0.0232621
0.0236034
0.0242693
0.0250008
0.0258656
0.0274778
0.0215383
0.0215329
0.021522
0.0215139
0.0215012
0.0214914
0.0214805
0.0214704
0.0214595
0.0214491
0.0214388
0.0214286
0.0214181
0.0214071
0.0213978
0.0213869
0.0213769
0.0213685
0.0213567
0.0213486
0.021338
0.021329
0.0213183
0.0213113
0.0212995
0.0212924
0.0212819
0.0212755
0.0212655
0.0212575
0.0212491
0.0212407
0.0212321
0.0212229
0.0212152
0.0212067
0.0211998
0.0211901
0.0211846
0.0211752
0.0211675
0.02116
0.0211543
0.0211453
0.021138
0.0211328
0.021124
0.0211182
0.0211121
0.0211038
0.0211006
0.0210953
0.0210902
0.0210861
0.0210847
0.0210821
0.0210793
0.0210783
0.0210776
0.021076
0.0210756
0.0210759
0.0210764
0.0210789
0.0210803
0.0210828
0.0210881
0.0210921
0.0210962
0.021106
0.021114
0.0211303
0.0211406
0.0211615
0.021177
0.0212157
0.021242
0.0212813
0.0213302
0.0213773
0.0214596
0.0215027
0.0215782
0.0216229
0.0217004
0.0217512
0.0218264
0.0218802
0.0219896
0.0220783
0.0222521
0.0223825
0.022663
0.0228691
0.0232933
0.023639
0.0242711
0.0250483
0.0257961
0.0274188
0.0215811
0.0215749
0.0215628
0.0215521
0.0215392
0.0215274
0.0215156
0.0215038
0.0214926
0.0214799
0.0214691
0.0214575
0.0214459
0.021434
0.0214235
0.0214124
0.0214004
0.0213921
0.0213785
0.0213708
0.0213581
0.02135
0.0213375
0.021331
0.0213187
0.0213108
0.0213008
0.0212935
0.0212841
0.0212759
0.0212664
0.0212589
0.0212502
0.0212397
0.0212323
0.021222
0.0212146
0.0212051
0.0211974
0.0211886
0.0211804
0.0211718
0.0211655
0.0211559
0.0211497
0.0211419
0.0211348
0.0211273
0.0211216
0.0211136
0.0211093
0.0211041
0.0210975
0.0210933
0.0210904
0.0210874
0.0210842
0.0210832
0.0210818
0.0210808
0.0210808
0.0210811
0.0210818
0.0210845
0.0210862
0.021089
0.021096
0.0211002
0.0211074
0.0211167
0.0211244
0.0211439
0.0211559
0.0211834
0.0211978
0.0212353
0.0212605
0.0213109
0.0213549
0.0214001
0.0214786
0.0215197
0.0215958
0.0216358
0.0217171
0.0217583
0.0218427
0.0218987
0.0220145
0.0220998
0.0222861
0.0224168
0.0226941
0.022926
0.0233082
0.0237873
0.0242198
0.0251684
0.0258761
0.0274379
0.0216183
0.0216115
0.0215986
0.0215849
0.0215727
0.0215582
0.0215459
0.0215325
0.0215208
0.0215068
0.0214945
0.0214818
0.0214701
0.021457
0.0214448
0.0214338
0.0214203
0.0214114
0.0213976
0.0213884
0.0213748
0.021366
0.0213531
0.0213453
0.0213328
0.0213239
0.0213135
0.0213051
0.0212956
0.0212865
0.0212757
0.0212678
0.0212585
0.0212472
0.0212395
0.0212284
0.0212205
0.0212114
0.0212026
0.0211941
0.0211859
0.021177
0.0211703
0.0211609
0.0211551
0.0211458
0.0211405
0.0211315
0.0211267
0.0211193
0.0211129
0.0211095
0.0211026
0.0211
0.021095
0.0210934
0.0210909
0.0210901
0.0210884
0.0210885
0.021089
0.02109
0.0210913
0.0210939
0.0210962
0.0211003
0.0211068
0.0211118
0.0211203
0.0211314
0.02114
0.0211582
0.0211735
0.0211996
0.0212176
0.0212465
0.0212957
0.0213243
0.021385
0.0214356
0.021504
0.0215514
0.0216212
0.0216662
0.0217389
0.0217795
0.0218575
0.0219309
0.0220276
0.0221422
0.0223198
0.0224549
0.0227428
0.0229902
0.0233151
0.0238708
0.0242737
0.0251442
0.0258784
0.0273259
0.021651
0.0216437
0.0216303
0.0216138
0.0216017
0.0215856
0.0215731
0.0215577
0.0215462
0.0215303
0.0215179
0.0215031
0.0214907
0.0214779
0.021464
0.0214535
0.0214382
0.0214293
0.0214144
0.0214049
0.0213905
0.0213814
0.0213678
0.0213583
0.021347
0.0213363
0.0213267
0.0213173
0.0213081
0.0212985
0.0212866
0.021279
0.0212694
0.0212581
0.0212505
0.0212393
0.0212307
0.0212223
0.0212121
0.0212045
0.021196
0.0211877
0.0211783
0.0211721
0.021163
0.0211562
0.0211482
0.0211415
0.0211341
0.0211288
0.0211203
0.0211171
0.0211104
0.0211076
0.0211026
0.0211005
0.0210973
0.0210958
0.0210954
0.0210944
0.0210939
0.0210944
0.0210961
0.0210981
0.0211025
0.0211061
0.0211107
0.0211224
0.0211277
0.0211365
0.0211572
0.0211658
0.0211908
0.0212063
0.0212472
0.0212656
0.0213206
0.0213531
0.021413
0.0214637
0.0215211
0.0215841
0.021637
0.0216894
0.0217498
0.0217979
0.0218505
0.021973
0.0220387
0.0221713
0.0223281
0.0224731
0.0227743
0.0230024
0.0233902
0.0238396
0.0243508
0.0251177
0.0258865
0.0273379
0.0216781
0.0216703
0.0216571
0.021637
0.0216261
0.0216077
0.021595
0.0215786
0.0215664
0.0215493
0.0215373
0.0215203
0.021508
0.0214949
0.0214789
0.0214689
0.0214531
0.0214425
0.0214289
0.021417
0.0214042
0.0213924
0.02138
0.0213678
0.0213579
0.0213462
0.0213358
0.0213256
0.0213174
0.0213063
0.0212957
0.0212858
0.0212771
0.021265
0.0212567
0.0212461
0.0212361
0.0212275
0.0212169
0.0212093
0.0212003
0.0211926
0.0211818
0.0211766
0.0211662
0.0211611
0.021151
0.0211463
0.021137
0.0211329
0.0211246
0.021121
0.0211146
0.0211114
0.021107
0.0211052
0.0211017
0.0211002
0.0211
0.0210998
0.0210999
0.0211013
0.0211025
0.0211052
0.0211095
0.0211136
0.02112
0.0211282
0.0211416
0.0211471
0.0211676
0.0211785
0.0212082
0.0212248
0.0212611
0.0212863
0.0213377
0.0213842
0.0214368
0.021494
0.0215393
0.0216077
0.0216471
0.0217034
0.0217606
0.0218043
0.0218641
0.0219872
0.0220613
0.022184
0.0223793
0.0225129
0.0228086
0.0230267
0.0234909
0.0238161
0.0245101
0.0250377
0.0261116
0.0271167
0.0217003
0.0216921
0.0216784
0.0216572
0.0216454
0.0216257
0.0216133
0.0215953
0.021583
0.0215659
0.0215531
0.0215361
0.0215211
0.0215094
0.0214917
0.0214815
0.0214654
0.0214545
0.0214408
0.0214271
0.0214163
0.0214012
0.0213913
0.0213765
0.0213673
0.0213549
0.0213454
0.0213324
0.021326
0.0213135
0.021305
0.0212915
0.0212846
0.0212718
0.0212625
0.021254
0.0212417
0.0212338
0.0212233
0.0212153
0.0212053
0.0211998
0.0211881
0.0211823
0.0211726
0.0211671
0.0211577
0.0211524
0.0211432
0.0211391
0.0211313
0.0211262
0.0211214
0.0211166
0.0211127
0.0211101
0.0211073
0.0211047
0.0211029
0.0211035
0.0211033
0.0211047
0.0211057
0.0211085
0.0211133
0.0211164
0.0211251
0.0211304
0.0211458
0.0211534
0.0211708
0.0211839
0.0212127
0.0212332
0.0212722
0.0212996
0.0213348
0.0214095
0.0214508
0.021513
0.0215544
0.0216161
0.021669
0.0217107
0.0217746
0.0218198
0.0218933
0.0219817
0.0220893
0.022201
0.0224192
0.022547
0.0228315
0.0230604
0.0235173
0.0238595
0.0245612
0.0250815
0.0262266
0.0270048
0.0217168
0.0217082
0.0216945
0.0216724
0.0216594
0.0216396
0.0216262
0.0216084
0.0215952
0.021578
0.0215636
0.0215487
0.0215307
0.0215197
0.0215012
0.0214907
0.0214752
0.0214622
0.0214499
0.0214343
0.0214251
0.0214084
0.021399
0.0213836
0.0213734
0.0213604
0.0213524
0.021338
0.0213306
0.0213182
0.0213101
0.0212965
0.0212877
0.0212768
0.0212656
0.0212582
0.0212451
0.0212374
0.0212264
0.0212188
0.0212079
0.0212025
0.0211923
0.0211847
0.0211771
0.0211691
0.0211617
0.0211549
0.0211471
0.0211411
0.0211353
0.0211284
0.0211244
0.0211188
0.0211154
0.0211118
0.0211096
0.0211067
0.0211057
0.0211053
0.0211055
0.0211068
0.0211082
0.0211105
0.0211175
0.0211204
0.0211293
0.0211357
0.0211463
0.0211653
0.0211758
0.0211974
0.0212155
0.0212533
0.0212773
0.0213265
0.0213582
0.0214218
0.0214664
0.0215241
0.0215739
0.0216192
0.0216824
0.021716
0.0217729
0.0218505
0.0219003
0.0220056
0.0221196
0.0222163
0.022441
0.0226026
0.0228058
0.0232162
0.0234622
0.0240113
0.0244689
0.0251792
0.0261694
0.0270357
0.021728
0.0217194
0.0217042
0.021684
0.0216689
0.0216492
0.0216353
0.0216168
0.0216032
0.0215866
0.0215704
0.0215568
0.0215378
0.0215261
0.021508
0.0214964
0.0214812
0.0214678
0.0214556
0.0214404
0.0214299
0.0214138
0.0214037
0.0213883
0.0213784
0.0213638
0.0213562
0.0213417
0.0213335
0.0213206
0.0213122
0.0213004
0.0212884
0.0212803
0.0212668
0.0212601
0.0212469
0.0212397
0.0212278
0.0212215
0.0212107
0.0212032
0.0211964
0.0211853
0.0211805
0.0211708
0.0211651
0.021156
0.0211517
0.0211429
0.0211388
0.0211306
0.0211273
0.0211204
0.0211179
0.0211124
0.0211111
0.0211081
0.0211075
0.0211067
0.0211072
0.0211076
0.0211109
0.0211132
0.0211161
0.021125
0.0211298
0.0211394
0.0211467
0.021167
0.0211777
0.0212046
0.0212196
0.0212572
0.0212802
0.021337
0.021367
0.0214245
0.0214726
0.0215212
0.0215825
0.0216199
0.0216807
0.0217275
0.0217633
0.0218505
0.02191
0.0220088
0.0221263
0.0222412
0.0223994
0.0226608
0.0228192
0.0231378
0.0235567
0.0238625
0.0245583
0.0250667
0.0260681
0.0268768
0.0217336
0.0217248
0.021709
0.0216898
0.021673
0.0216542
0.0216392
0.0216209
0.0216067
0.0215902
0.0215735
0.0215598
0.0215409
0.0215283
0.021511
0.0214986
0.021484
0.0214704
0.0214576
0.0214436
0.0214312
0.0214169
0.0214053
0.0213903
0.0213805
0.0213654
0.0213573
0.0213437
0.0213341
0.0213223
0.0213122
0.0213025
0.021288
0.0212812
0.021268
0.0212604
0.0212476
0.0212407
0.0212287
0.0212216
0.0212128
0.0212038
0.0211966
0.0211886
0.0211809
0.0211727
0.0211668
0.0211573
0.0211531
0.0211447
0.0211407
0.0211321
0.0211285
0.0211218
0.0211194
0.0211138
0.0211122
0.0211086
0.021108
0.0211071
0.0211068
0.0211085
0.0211098
0.0211138
0.0211168
0.0211243
0.0211297
0.0211404
0.0211485
0.0211694
0.0211794
0.0212056
0.0212229
0.0212642
0.0212847
0.0213355
0.0213816
0.0214284
0.0214851
0.0215233
0.0215851
0.0216389
0.0216735
0.0217333
0.0217905
0.0218331
0.0219366
0.0220087
0.0221334
0.0222877
0.0224004
0.0226537
0.0228864
0.0231073
0.023629
0.0239253
0.0246093
0.025113
0.0262505
0.0269704
0.0217336
0.0217249
0.0217079
0.0216921
0.0216716
0.0216564
0.0216378
0.0216217
0.0216064
0.0215888
0.0215747
0.021557
0.0215434
0.021525
0.0215132
0.0214968
0.0214851
0.0214701
0.0214577
0.0214453
0.0214299
0.0214198
0.0214034
0.0213933
0.0213784
0.0213682
0.0213551
0.021345
0.0213333
0.0213213
0.0213128
0.0212995
0.0212903
0.0212776
0.0212702
0.0212567
0.0212498
0.0212375
0.021231
0.0212194
0.0212138
0.0212035
0.0211975
0.0211899
0.0211802
0.0211758
0.0211664
0.0211615
0.0211521
0.0211478
0.021139
0.0211353
0.0211278
0.0211249
0.0211188
0.0211163
0.0211113
0.0211087
0.0211081
0.0211055
0.0211054
0.0211059
0.0211073
0.0211095
0.0211163
0.0211192
0.0211285
0.0211353
0.0211504
0.0211602
0.0211835
0.0211963
0.0212297
0.0212487
0.0212962
0.0213209
0.0213788
0.0214206
0.0214815
0.0215288
0.0215744
0.0216391
0.0216781
0.0217327
0.0217999
0.0218425
0.0219389
0.0220151
0.022134
0.0222603
0.022457
0.0226059
0.0229022
0.0232047
0.0234625
0.0240887
0.0244908
0.0253637
0.0259615
0.0273611
0.021728
0.0217194
0.0217026
0.0216876
0.0216665
0.0216526
0.0216332
0.0216181
0.0216024
0.0215848
0.0215716
0.021553
0.0215407
0.0215216
0.0215106
0.0214939
0.021483
0.0214674
0.0214562
0.0214429
0.0214284
0.0214181
0.0214015
0.0213923
0.0213763
0.0213671
0.0213535
0.0213436
0.0213314
0.0213198
0.0213116
0.021297
0.0212893
0.0212759
0.0212685
0.0212554
0.0212486
0.0212361
0.0212298
0.0212184
0.0212131
0.0212027
0.0211977
0.0211877
0.0211826
0.0211737
0.0211665
0.0211618
0.0211516
0.0211471
0.0211392
0.0211352
0.0211271
0.0211241
0.0211177
0.0211155
0.0211099
0.0211082
0.0211061
0.0211028
0.0211035
0.0211038
0.0211047
0.0211073
0.0211111
0.021116
0.0211229
0.0211334
0.0211452
0.021153
0.0211783
0.0211909
0.0212222
0.0212403
0.0212858
0.0213129
0.02137
0.0214206
0.0214711
0.0215267
0.0215649
0.0216328
0.0216757
0.0217344
0.0217809
0.0218351
0.0219432
0.0220043
0.0221314
0.0222491
0.0224515
0.0225909
0.0228973
0.0231454
0.0234906
0.0240275
0.024458
0.0251719
0.0259702
0.0271378
0.0217169
0.0217084
0.0216923
0.0216769
0.0216562
0.0216436
0.0216235
0.02161
0.0215941
0.0215763
0.021564
0.0215448
0.0215335
0.0215145
0.0215039
0.0214879
0.0214771
0.0214616
0.0214519
0.0214368
0.0214246
0.0214128
0.0213976
0.0213881
0.0213722
0.021364
0.0213497
0.0213398
0.0213267
0.0213177
0.021307
0.0212938
0.021286
0.0212728
0.0212643
0.0212531
0.0212454
0.0212335
0.0212269
0.0212172
0.0212108
0.0212016
0.0211961
0.0211864
0.0211817
0.021172
0.021167
0.0211589
0.0211513
0.0211468
0.0211389
0.0211326
0.021127
0.0211227
0.0211156
0.0211128
0.0211082
0.0211065
0.0211012
0.0211005
0.0210997
0.0211001
0.0211008
0.0211036
0.021105
0.0211126
0.0211166
0.0211278
0.0211362
0.0211513
0.0211649
0.021188
0.0212117
0.0212319
0.0212779
0.0213127
0.0213567
0.0214165
0.021462
0.0215255
0.0215645
0.0216313
0.0216713
0.0217329
0.0217707
0.0218483
0.0219132
0.0220026
0.0221456
0.0222404
0.0224387
0.0226113
0.0228808
0.0231457
0.0235872
0.0239068
0.0246431
0.02515
0.0262379
0.0270466
0.0217004
0.0216923
0.0216771
0.0216612
0.0216423
0.0216296
0.0216099
0.0215981
0.0215807
0.0215648
0.0215518
0.0215344
0.0215226
0.0215042
0.0214943
0.0214787
0.0214683
0.0214532
0.0214439
0.0214281
0.0214182
0.0214045
0.0213913
0.0213807
0.0213659
0.021358
0.0213432
0.0213338
0.0213218
0.0213133
0.0212994
0.0212898
0.0212796
0.0212688
0.0212589
0.0212496
0.0212404
0.0212299
0.0212231
0.0212143
0.0212075
0.0211996
0.021193
0.021185
0.0211792
0.0211705
0.0211653
0.0211562
0.0211513
0.0211443
0.0211375
0.0211307
0.0211257
0.02112
0.0211138
0.0211103
0.021106
0.0211032
0.0210986
0.0210976
0.0210953
0.0210954
0.0210958
0.0210969
0.021099
0.0211046
0.0211079
0.0211184
0.0211246
0.0211419
0.0211516
0.0211768
0.0211923
0.0212269
0.0212499
0.0213001
0.0213302
0.0213954
0.021438
0.0215126
0.0215529
0.0216191
0.0216605
0.0217127
0.0217684
0.0218334
0.0218951
0.021993
0.0221207
0.0222163
0.022409
0.0226153
0.0227889
0.0231882
0.0234738
0.023975
0.024544
0.0251441
0.0262526
0.0271082
0.0216783
0.0216705
0.0216567
0.0216397
0.0216237
0.0216106
0.0215923
0.021581
0.0215632
0.021549
0.0215361
0.02152
0.0215071
0.0214916
0.021481
0.0214662
0.0214557
0.0214418
0.0214315
0.0214173
0.0214079
0.0213935
0.0213821
0.0213707
0.0213577
0.0213483
0.0213346
0.0213256
0.0213141
0.021305
0.0212908
0.0212836
0.0212711
0.0212629
0.0212508
0.0212431
0.0212326
0.0212243
0.0212163
0.0212086
0.0212009
0.0211951
0.0211862
0.0211814
0.0211726
0.0211668
0.0211599
0.0211511
0.0211474
0.0211393
0.0211335
0.0211253
0.0211215
0.0211148
0.0211096
0.021105
0.0211009
0.021097
0.0210935
0.02109
0.0210889
0.0210878
0.0210882
0.0210888
0.0210918
0.0210944
0.0211008
0.0211081
0.0211152
0.0211324
0.0211428
0.0211677
0.021182
0.0212185
0.0212407
0.0212893
0.0213187
0.0213835
0.0214281
0.0214954
0.0215448
0.0215997
0.0216535
0.0217002
0.0217586
0.0218271
0.0218796
0.0219848
0.0221075
0.0221982
0.0223983
0.0225755
0.0227773
0.023173
0.0234494
0.0239295
0.0245866
0.0251272
0.0262514
0.0271497
0.0216512
0.0216439
0.0216312
0.0216152
0.0216001
0.0215875
0.0215706
0.0215598
0.021542
0.0215308
0.0215161
0.0215031
0.0214889
0.0214764
0.0214649
0.0214513
0.0214414
0.0214284
0.0214171
0.0214054
0.0213946
0.0213817
0.0213712
0.0213591
0.0213483
0.021338
0.0213252
0.021317
0.021305
0.0212961
0.0212826
0.0212761
0.0212634
0.0212563
0.0212438
0.0212373
0.0212264
0.0212194
0.0212109
0.0212039
0.0211963
0.0211908
0.0211824
0.0211773
0.0211693
0.0211632
0.021156
0.0211486
0.0211442
0.0211347
0.0211303
0.0211215
0.0211178
0.0211113
0.0211051
0.0211017
0.0210971
0.0210909
0.0210884
0.0210852
0.0210833
0.0210813
0.0210805
0.021081
0.0210831
0.0210849
0.0210915
0.021095
0.0211046
0.0211165
0.0211248
0.0211441
0.0211662
0.0211924
0.0212138
0.0212609
0.0212985
0.021356
0.0214099
0.0214644
0.0215295
0.0215777
0.0216438
0.0216907
0.0217487
0.0218161
0.0218649
0.0219791
0.0220702
0.0221866
0.0223784
0.0225177
0.0227898
0.0231141
0.0234176
0.0239045
0.0245761
0.0250962
0.026313
0.0272248
0.0216185
0.0216117
0.0215998
0.0215855
0.0215719
0.0215593
0.0215445
0.0215333
0.0215171
0.0215075
0.0214931
0.0214812
0.0214675
0.0214569
0.0214447
0.021433
0.0214225
0.0214109
0.0213999
0.0213894
0.0213787
0.0213668
0.0213569
0.0213442
0.0213354
0.021324
0.021313
0.0213042
0.0212933
0.0212833
0.0212719
0.0212641
0.0212528
0.0212447
0.0212334
0.0212264
0.0212153
0.0212099
0.0212003
0.0211944
0.0211862
0.0211805
0.021174
0.0211668
0.0211617
0.0211543
0.0211469
0.0211424
0.0211346
0.0211261
0.0211226
0.0211148
0.0211105
0.0211028
0.0210985
0.0210944
0.0210898
0.021084
0.021082
0.0210787
0.0210754
0.0210745
0.0210728
0.0210739
0.0210749
0.0210766
0.0210813
0.0210847
0.0210959
0.0211013
0.0211158
0.02113
0.0211573
0.0211722
0.0212046
0.0212322
0.0212876
0.0213222
0.0213894
0.0214384
0.0215105
0.0215567
0.0216309
0.0216794
0.0217444
0.0218015
0.0218483
0.0219608
0.0220349
0.0221789
0.0223286
0.022467
0.0227936
0.0230302
0.0233837
0.023875
0.0244543
0.0251252
0.0261414
0.0273779
0.0215812
0.0215751
0.0215646
0.0215513
0.0215393
0.0215278
0.0215147
0.0215037
0.0214897
0.0214815
0.0214666
0.021457
0.0214435
0.0214351
0.0214223
0.0214125
0.0214021
0.0213915
0.0213815
0.0213718
0.0213615
0.0213507
0.0213417
0.0213292
0.0213216
0.0213101
0.0213007
0.0212922
0.021282
0.0212723
0.0212625
0.0212548
0.0212452
0.0212368
0.0212269
0.0212197
0.0212092
0.0212042
0.0211945
0.0211892
0.0211806
0.0211755
0.0211688
0.0211621
0.0211562
0.02115
0.0211415
0.0211373
0.0211293
0.0211217
0.0211178
0.0211093
0.0211052
0.0210973
0.0210939
0.0210871
0.0210816
0.021077
0.0210736
0.0210689
0.0210664
0.0210651
0.0210619
0.0210633
0.0210634
0.0210645
0.0210684
0.0210716
0.0210806
0.0210856
0.0211035
0.0211129
0.0211351
0.0211485
0.0211858
0.0212075
0.0212597
0.0212901
0.0213559
0.0214076
0.0214874
0.021534
0.0216115
0.0216641
0.0217323
0.0217908
0.021837
0.0219411
0.0220161
0.0221661
0.0222948
0.0224604
0.0227828
0.0229808
0.0233577
0.0238841
0.0243569
0.0252208
0.0261511
0.0273722
0.0215384
0.021533
0.0215237
0.0215124
0.021502
0.021491
0.02148
0.0214697
0.0214578
0.0214504
0.0214364
0.0214285
0.021416
0.0214082
0.0213962
0.0213879
0.0213774
0.0213685
0.0213591
0.02135
0.0213404
0.0213299
0.0213218
0.0213097
0.0213024
0.0212909
0.0212827
0.0212733
0.0212641
0.0212535
0.0212456
0.0212359
0.0212288
0.0212187
0.0212116
0.0212035
0.0211947
0.0211901
0.0211806
0.021176
0.0211681
0.0211642
0.0211567
0.0211525
0.0211444
0.0211401
0.0211315
0.0211274
0.0211198
0.0211134
0.021109
0.0211018
0.0210973
0.0210907
0.0210879
0.0210813
0.0210773
0.0210721
0.0210691
0.0210643
0.0210612
0.0210595
0.021056
0.0210566
0.0210565
0.0210576
0.0210597
0.021064
0.0210687
0.0210756
0.0210906
0.0210986
0.0211159
0.021129
0.0211637
0.0211817
0.0212288
0.0212547
0.0213208
0.0213637
0.0214432
0.0214915
0.0215693
0.0216323
0.0216941
0.0217694
0.0218154
0.0219129
0.021984
0.0221368
0.0222489
0.0224573
0.0226924
0.0229726
0.0232913
0.0238793
0.0243124
0.0252046
0.0260841
0.0276055
0.0214917
0.0214871
0.0214794
0.0214698
0.0214608
0.0214514
0.0214422
0.0214327
0.0214234
0.0214165
0.021404
0.0213975
0.0213866
0.0213798
0.0213684
0.0213619
0.021352
0.0213445
0.0213365
0.0213281
0.0213203
0.0213108
0.0213044
0.0212938
0.0212879
0.0212776
0.0212707
0.0212617
0.0212535
0.0212435
0.0212362
0.021227
0.0212201
0.0212101
0.0212034
0.0211949
0.0211876
0.021181
0.0211734
0.0211685
0.0211605
0.0211565
0.0211496
0.021145
0.0211369
0.0211326
0.0211241
0.0211195
0.0211108
0.0211053
0.0210998
0.0210927
0.0210864
0.0210811
0.021077
0.0210694
0.0210665
0.0210615
0.0210588
0.0210544
0.0210507
0.0210482
0.021047
0.0210459
0.0210445
0.0210454
0.0210472
0.0210527
0.0210563
0.0210645
0.0210737
0.0210828
0.0211032
0.021118
0.0211489
0.0211684
0.0212118
0.0212395
0.0213037
0.0213465
0.0214251
0.0214771
0.0215505
0.0216198
0.0216727
0.0217559
0.0218022
0.0218952
0.0219641
0.0221102
0.02222
0.0224447
0.0226281
0.0229648
0.0232545
0.0238474
0.0242941
0.0252027
0.0260023
0.0278092
0.0214396
0.0214359
0.02143
0.0214218
0.0214155
0.0214064
0.0213999
0.0213914
0.0213847
0.0213779
0.0213676
0.0213614
0.0213527
0.0213458
0.021336
0.0213302
0.0213202
0.0213142
0.0213061
0.0212981
0.0212901
0.021281
0.0212743
0.0212644
0.0212584
0.0212488
0.0212432
0.0212349
0.021228
0.0212203
0.0212135
0.0212068
0.0212004
0.0211919
0.0211854
0.0211774
0.021172
0.0211639
0.0211582
0.0211545
0.0211475
0.0211431
0.0211388
0.0211343
0.021127
0.0211231
0.0211161
0.0211124
0.0211045
0.0210997
0.0210944
0.0210875
0.0210813
0.0210761
0.0210715
0.021064
0.0210611
0.0210555
0.0210518
0.0210476
0.0210439
0.0210425
0.0210387
0.0210376
0.0210361
0.0210365
0.0210373
0.021041
0.0210437
0.0210493
0.0210578
0.0210649
0.0210796
0.0210927
0.0211168
0.0211356
0.0211745
0.0212037
0.0212639
0.021306
0.0213831
0.0214509
0.0215186
0.0216006
0.0216453
0.0217343
0.0217838
0.0218705
0.0219367
0.0220722
0.0221764
0.0224
0.0225725
0.0229307
0.0232172
0.0238082
0.0242836
0.0252958
0.0260519
0.0277981
0.0213841
0.0213813
0.0213774
0.0213709
0.021367
0.0213592
0.0213549
0.021348
0.0213432
0.0213373
0.02133
0.0213252
0.0213188
0.0213137
0.0213062
0.0213027
0.0212953
0.0212913
0.0212849
0.0212791
0.0212723
0.0212647
0.0212582
0.0212498
0.0212437
0.0212349
0.0212297
0.0212207
0.0212147
0.0212066
0.0211996
0.0211936
0.0211863
0.0211791
0.0211727
0.0211669
0.0211604
0.0211521
0.0211476
0.0211431
0.0211356
0.0211297
0.021125
0.0211199
0.0211126
0.0211083
0.0211012
0.0210971
0.0210901
0.0210861
0.0210817
0.0210755
0.0210699
0.0210658
0.02106
0.021054
0.0210505
0.0210438
0.0210411
0.0210364
0.0210332
0.0210306
0.0210275
0.0210257
0.0210239
0.021024
0.0210247
0.0210269
0.0210291
0.021036
0.0210442
0.0210524
0.0210692
0.0210822
0.0211036
0.0211206
0.0211583
0.0211874
0.0212416
0.0212781
0.0213514
0.0214292
0.0214964
0.0215836
0.0216303
0.021721
0.0217746
0.0218586
0.0219217
0.022051
0.0221531
0.0223691
0.0225315
0.0228777
0.0231468
0.0237483
0.0242174
0.0252085
0.0263113
0.0276997
0.0213235
0.0213218
0.0213197
0.0213157
0.0213133
0.0213081
0.0213049
0.0212991
0.0212959
0.0212902
0.0212845
0.0212793
0.0212734
0.021267
0.0212606
0.0212564
0.0212496
0.021246
0.0212401
0.0212363
0.021231
0.0212266
0.0212213
0.0212167
0.0212117
0.0212055
0.0212018
0.0211943
0.0211896
0.0211843
0.0211782
0.0211742
0.0211671
0.0211617
0.0211546
0.0211493
0.0211447
0.0211374
0.0211337
0.0211294
0.0211242
0.0211202
0.0211166
0.0211118
0.0211052
0.021101
0.0210939
0.0210898
0.0210829
0.0210788
0.0210744
0.0210684
0.0210631
0.0210596
0.0210539
0.0210483
0.0210444
0.0210382
0.0210354
0.0210306
0.0210276
0.0210244
0.0210214
0.0210195
0.0210175
0.0210172
0.0210179
0.0210192
0.0210209
0.0210259
0.0210294
0.0210352
0.021049
0.0210607
0.021076
0.0210994
0.0211315
0.0211568
0.0211991
0.0212488
0.0212988
0.0213832
0.0214476
0.0215432
0.0216002
0.0216936
0.021756
0.0218382
0.0218967
0.0220222
0.0221226
0.0223264
0.0225063
0.0228308
0.0231373
0.0236907
0.0242178
0.025041
0.0263086
0.0277878
0.0212602
0.0212593
0.0212588
0.0212576
0.0212573
0.0212561
0.0212554
0.0212536
0.0212529
0.0212512
0.021249
0.0212475
0.0212448
0.0212404
0.021236
0.0212327
0.021227
0.0212242
0.0212186
0.021215
0.0212085
0.0212049
0.0211991
0.021195
0.0211892
0.0211835
0.0211798
0.0211726
0.021168
0.0211618
0.0211566
0.0211514
0.0211457
0.021141
0.0211351
0.0211308
0.0211256
0.0211197
0.0211169
0.0211124
0.0211078
0.0211026
0.021099
0.0210941
0.0210897
0.021085
0.0210781
0.0210745
0.0210678
0.0210637
0.0210576
0.0210518
0.0210462
0.0210434
0.0210381
0.0210329
0.0210296
0.021024
0.0210209
0.0210166
0.0210137
0.021009
0.0210062
0.0210051
0.021003
0.0210028
0.0210034
0.0210048
0.0210081
0.0210146
0.0210188
0.0210268
0.0210407
0.0210508
0.0210638
0.0210903
0.0211169
0.0211437
0.0211785
0.0212342
0.0212771
0.021358
0.021424
0.0215193
0.0215829
0.0216762
0.0217409
0.0218268
0.0218838
0.0220018
0.0221021
0.0222849
0.0224858
0.0227715
0.0231463
0.0236004
0.0243309
0.025028
0.0263314
0.0280013
0.0211919
0.0211947
0.0211937
0.0211921
0.0211909
0.0211892
0.0211883
0.0211874
0.0211869
0.0211864
0.0211858
0.0211848
0.0211842
0.0211832
0.0211823
0.0211814
0.0211796
0.0211785
0.0211763
0.0211747
0.0211711
0.0211691
0.0211651
0.0211628
0.0211593
0.0211553
0.0211532
0.021148
0.021145
0.0211408
0.0211373
0.0211339
0.021128
0.0211248
0.0211184
0.0211148
0.0211108
0.0211046
0.0211023
0.0210979
0.0210953
0.0210909
0.0210887
0.0210849
0.0210799