/*--------------------------------*- C++ -*----------------------------------*\
| =========                 |                                                 |
| \\      /  F ield         | OpenFOAM: The Open Source CFD Toolbox           |
|  \\    /   O peration     | Version:  2.3.1                                 |
|   \\  /    A nd           | Web:      www.OpenFOAM.org                      |
|    \\/     M anipulation  |                                                 |
\*---------------------------------------------------------------------------*/
FoamFile
{
    version     2.0;
    format      ascii;
    class       volScalarField;
    location    "1000";
    object      omega_0;
}
// * * * * * * * * * * * * * * * * * * * * * * * * * * * * * * * * * * * * * //

dimensions      [0 0 -1 0 0 0 0];

internalField   nonuniform List<scalar> 
19300
(
0.021193
0.0211957
0.0211948
0.0211934
0.0211916
0.0211905
0.0211895
0.0211885
0.0211879
0.0211874
0.0211869
0.0211857
0.021185
0.0211843
0.0211836
0.0211823
0.0211813
0.0211791
0.0211776
0.0211749
0.0211723
0.0211702
0.0211658
0.021163
0.0211597
0.0211564
0.0211539
0.0211497
0.0211466
0.0211443
0.0211389
0.0211359
0.0211313
0.0211269
0.0211213
0.0211188
0.0211145
0.021108
0.0211039
0.0210991
0.0210958
0.0210902
0.0210865
0.0210813
0.0210781
0.0210745
0.0210673
0.0210643
0.0210589
0.0210549
0.0210488
0.0210451
0.0210414
0.0210384
0.0210364
0.021033
0.0210315
0.0210284
0.0210276
0.0210256
0.0210244
0.0210221
0.0210203
0.0210193
0.0210186
0.0210179
0.0210168
0.0210168
0.0210173
0.0210189
0.0210232
0.0210268
0.0210368
0.0210443
0.021058
0.0210695
0.021094
0.0211093
0.0211445
0.0211692
0.0212098
0.0212671
0.0213111
0.0214079
0.0214914
0.0215778
0.0216763
0.0217421
0.0218395
0.0219022
0.0220256
0.0221565
0.0223216
0.022665
0.0228997
0.0233845
0.0240129
0.0247152
0.0260237
0.0275787
0.0212613
0.0212604
0.0212597
0.0212593
0.0212581
0.0212575
0.0212561
0.0212555
0.0212537
0.0212527
0.0212506
0.0212479
0.0212456
0.0212412
0.0212383
0.0212324
0.0212294
0.0212237
0.0212202
0.0212144
0.0212102
0.0212052
0.0212003
0.0211947
0.0211906
0.0211855
0.0211802
0.0211754
0.0211698
0.0211653
0.0211592
0.0211552
0.0211493
0.0211439
0.0211374
0.0211339
0.0211278
0.0211218
0.021117
0.0211114
0.0211062
0.0211005
0.0210965
0.0210902
0.0210858
0.0210801
0.0210735
0.0210702
0.0210642
0.0210607
0.0210553
0.0210517
0.0210475
0.0210441
0.0210425
0.0210391
0.0210378
0.0210352
0.0210343
0.0210317
0.0210306
0.0210282
0.0210277
0.0210271
0.0210269
0.0210273
0.0210285
0.0210314
0.0210343
0.0210397
0.0210484
0.0210529
0.0210641
0.0210726
0.0210899
0.0211015
0.0211279
0.0211468
0.0211827
0.0212224
0.0212596
0.0213306
0.0213866
0.0214934
0.0215693
0.0216424
0.0217361
0.0217916
0.0218785
0.0219515
0.0220725
0.0222466
0.0223936
0.0227196
0.0230077
0.0234553
0.0241696
0.02481
0.0260663
0.027707
0.0213245
0.0213228
0.0213202
0.0213181
0.0213134
0.0213106
0.0213049
0.0213018
0.0212957
0.021292
0.0212865
0.0212793
0.0212743
0.0212675
0.0212631
0.0212559
0.0212519
0.0212457
0.021241
0.0212361
0.0212322
0.0212268
0.0212226
0.0212172
0.0212122
0.0212072
0.0212025
0.0211976
0.0211917
0.0211884
0.0211816
0.0211772
0.0211704
0.0211655
0.0211581
0.0211538
0.021149
0.021141
0.021137
0.0211298
0.0211257
0.0211185
0.0211143
0.0211069
0.0211012
0.021096
0.0210883
0.0210847
0.021078
0.0210737
0.0210688
0.0210633
0.0210601
0.0210556
0.021054
0.0210503
0.0210492
0.0210467
0.021046
0.021044
0.0210431
0.0210412
0.0210411
0.0210414
0.0210407
0.0210413
0.0210427
0.0210448
0.0210471
0.0210512
0.021059
0.0210627
0.0210733
0.0210819
0.0211009
0.0211121
0.021141
0.0211616
0.0211971
0.0212482
0.0212805
0.0213597
0.0214192
0.0215221
0.0215914
0.0216571
0.0217514
0.0217995
0.0218874
0.0219667
0.0220769
0.02228
0.0224226
0.0227312
0.0230642
0.0234628
0.0242155
0.0248409
0.0259638
0.027806
0.021385
0.0213823
0.0213773
0.0213738
0.0213665
0.0213621
0.0213551
0.0213506
0.0213432
0.0213385
0.0213329
0.0213258
0.0213203
0.0213138
0.021309
0.0213021
0.0212974
0.0212914
0.0212852
0.0212785
0.021273
0.0212645
0.0212584
0.0212509
0.0212431
0.0212375
0.0212295
0.0212247
0.0212161
0.0212112
0.0212041
0.0211983
0.0211898
0.0211841
0.0211758
0.0211703
0.0211635
0.0211551
0.0211505
0.0211413
0.0211351
0.0211266
0.0211222
0.0211144
0.0211081
0.0211028
0.021095
0.0210914
0.0210845
0.0210795
0.0210765
0.0210703
0.0210678
0.0210627
0.0210604
0.021056
0.0210545
0.0210522
0.0210514
0.0210499
0.0210486
0.0210475
0.0210476
0.0210485
0.0210481
0.0210492
0.0210512
0.0210546
0.0210575
0.0210631
0.0210728
0.0210797
0.0210908
0.0211046
0.021128
0.0211403
0.0211724
0.0211974
0.021242
0.0212873
0.0213307
0.0214115
0.0214689
0.0215613
0.0216167
0.0216885
0.0217683
0.0218131
0.0219063
0.0220091
0.022105
0.0223271
0.0225057
0.0227624
0.0231687
0.0235214
0.0242176
0.0249157
0.0258988
0.0276774
0.0214405
0.0214368
0.0214296
0.0214247
0.021415
0.0214091
0.0214004
0.021394
0.0213852
0.0213785
0.0213711
0.0213619
0.0213547
0.0213456
0.0213389
0.0213292
0.0213224
0.0213144
0.0213057
0.0212975
0.0212904
0.0212809
0.0212738
0.0212661
0.0212571
0.0212517
0.021243
0.0212385
0.02123
0.021225
0.0212177
0.0212117
0.0212031
0.0211976
0.0211887
0.021182
0.0211761
0.0211672
0.0211624
0.0211532
0.0211478
0.0211405
0.0211367
0.0211291
0.0211225
0.0211171
0.0211097
0.0211058
0.0210989
0.0210925
0.0210894
0.0210824
0.0210788
0.0210732
0.0210707
0.0210667
0.021065
0.021063
0.0210624
0.021061
0.0210603
0.0210605
0.0210606
0.0210623
0.0210627
0.0210642
0.0210668
0.0210716
0.0210748
0.0210825
0.0210883
0.0210993
0.0211079
0.0211234
0.0211468
0.0211607
0.0211897
0.0212135
0.0212656
0.0212998
0.0213634
0.0214321
0.0214899
0.0215797
0.0216298
0.0217105
0.02178
0.021828
0.0219336
0.0220432
0.0221373
0.0223503
0.0225485
0.0227716
0.0232196
0.0235526
0.0241974
0.0249611
0.0258327
0.0275564
0.0214926
0.021488
0.0214786
0.0214726
0.0214609
0.0214534
0.0214433
0.0214349
0.0214254
0.0214162
0.0214078
0.0213984
0.021389
0.0213791
0.0213715
0.0213614
0.0213532
0.0213453
0.0213354
0.0213278
0.0213195
0.021311
0.0213026
0.0212963
0.0212861
0.0212803
0.0212707
0.0212652
0.0212556
0.0212485
0.0212406
0.0212327
0.0212237
0.0212156
0.0212072
0.0211996
0.0211925
0.0211828
0.021178
0.0211683
0.021161
0.0211529
0.0211474
0.0211388
0.0211317
0.0211264
0.0211173
0.0211123
0.0211052
0.0210981
0.0210948
0.0210877
0.0210833
0.0210781
0.0210754
0.0210719
0.02107
0.0210687
0.021068
0.0210661
0.021066
0.0210665
0.0210668
0.0210688
0.0210693
0.0210711
0.0210745
0.0210791
0.0210823
0.0210913
0.0210982
0.0211077
0.0211192
0.0211343
0.0211562
0.0211768
0.0212063
0.0212343
0.0212886
0.0213244
0.0214089
0.0214629
0.0215372
0.0216082
0.0216709
0.0217393
0.0218112
0.0218612
0.0219592
0.0220711
0.0221872
0.0223716
0.0226148
0.0228171
0.0232664
0.0236064
0.0242762
0.0249913
0.0258774
0.0274875
0.0215394
0.0215339
0.021523
0.0215149
0.0215022
0.0214925
0.0214815
0.0214714
0.0214605
0.0214501
0.0214398
0.0214296
0.0214191
0.0214081
0.0213988
0.0213878
0.0213779
0.0213695
0.0213577
0.0213496
0.021339
0.02133
0.0213194
0.0213123
0.0213005
0.0212934
0.021283
0.0212765
0.0212664
0.0212585
0.0212501
0.0212417
0.021233
0.0212239
0.0212162
0.0212077
0.0212007
0.0211911
0.0211856
0.021176
0.0211684
0.021161
0.0211553
0.0211462
0.021139
0.0211338
0.0211249
0.0211192
0.0211129
0.0211049
0.0211017
0.0210963
0.0210913
0.0210873
0.0210859
0.0210832
0.0210804
0.0210795
0.0210788
0.021077
0.0210767
0.021077
0.0210775
0.02108
0.0210813
0.0210839
0.021089
0.0210928
0.0210969
0.021107
0.0211149
0.0211309
0.0211411
0.0211618
0.0211777
0.021217
0.0212423
0.0212817
0.0213307
0.0213783
0.0214604
0.0215031
0.0215786
0.021624
0.0217016
0.021753
0.0218272
0.0218809
0.0219902
0.0220807
0.0222512
0.0223849
0.0226648
0.0228686
0.0232972
0.0236388
0.0242853
0.025034
0.0257946
0.0274254
0.0215821
0.021576
0.0215638
0.0215532
0.0215402
0.0215285
0.0215166
0.0215048
0.0214936
0.0214809
0.0214701
0.0214585
0.0214469
0.021435
0.0214245
0.0214134
0.0214015
0.021393
0.0213795
0.0213719
0.0213591
0.021351
0.0213385
0.021332
0.0213197
0.0213118
0.0213018
0.0212946
0.0212851
0.0212769
0.0212674
0.0212599
0.0212511
0.0212407
0.0212332
0.0212229
0.0212155
0.021206
0.0211984
0.0211895
0.0211813
0.0211728
0.0211664
0.0211569
0.0211507
0.0211428
0.0211357
0.0211283
0.0211226
0.0211145
0.0211104
0.021105
0.0210985
0.0210945
0.0210916
0.0210885
0.0210854
0.0210844
0.021083
0.0210819
0.0210819
0.0210821
0.0210828
0.0210856
0.0210871
0.0210901
0.021097
0.021101
0.0211082
0.0211174
0.0211251
0.021145
0.0211568
0.0211839
0.0211983
0.0212365
0.0212616
0.0213118
0.0213548
0.021401
0.0214795
0.0215202
0.0215964
0.0216366
0.0217184
0.0217596
0.0218439
0.0218997
0.0220159
0.0221009
0.0222872
0.0224173
0.0226973
0.0229244
0.0233176
0.023773
0.0242303
0.0251716
0.0258752
0.0274373
0.0216194
0.0216126
0.0215996
0.021586
0.0215737
0.0215593
0.021547
0.0215335
0.0215218
0.0215078
0.0214956
0.0214828
0.0214711
0.021458
0.0214458
0.0214348
0.0214214
0.0214124
0.0213986
0.0213894
0.0213758
0.021367
0.0213542
0.0213463
0.0213338
0.0213249
0.0213145
0.0213062
0.0212966
0.0212874
0.0212768
0.0212688
0.0212594
0.0212481
0.0212404
0.0212294
0.0212215
0.0212123
0.0212036
0.0211951
0.0211869
0.021178
0.0211712
0.0211619
0.0211561
0.0211467
0.0211415
0.0211325
0.0211277
0.0211202
0.021114
0.0211105
0.0211036
0.0211011
0.0210961
0.0210946
0.0210921
0.0210913
0.0210895
0.0210897
0.0210901
0.0210911
0.0210924
0.0210949
0.0210972
0.0211013
0.0211078
0.0211126
0.0211213
0.0211321
0.0211407
0.0211592
0.0211744
0.0212002
0.0212177
0.0212484
0.0212958
0.0213244
0.0213861
0.0214362
0.0215048
0.0215519
0.021622
0.0216669
0.0217399
0.0217804
0.0218596
0.0219304
0.0220287
0.0221443
0.02232
0.0224562
0.0227474
0.0229864
0.0233252
0.0238667
0.0242677
0.0251553
0.025884
0.0273217
0.0216521
0.0216447
0.0216313
0.0216149
0.0216027
0.0215866
0.0215742
0.0215588
0.0215472
0.0215313
0.0215189
0.0215041
0.0214918
0.0214789
0.021465
0.0214545
0.0214393
0.0214303
0.0214154
0.0214059
0.0213915
0.0213825
0.0213688
0.0213594
0.021348
0.0213374
0.0213277
0.0213184
0.0213092
0.0212994
0.0212876
0.0212801
0.0212703
0.0212591
0.0212515
0.0212402
0.0212317
0.0212232
0.0212131
0.0212055
0.021197
0.0211886
0.0211793
0.0211731
0.021164
0.0211571
0.0211492
0.0211424
0.0211351
0.0211297
0.0211213
0.0211181
0.0211114
0.0211086
0.0211036
0.0211016
0.0210984
0.021097
0.0210965
0.0210955
0.0210949
0.0210955
0.0210972
0.0210992
0.0211035
0.021107
0.0211119
0.0211233
0.0211284
0.0211377
0.0211578
0.0211663
0.0211916
0.0212073
0.0212478
0.0212661
0.0213217
0.0213536
0.0214135
0.0214639
0.0215226
0.0215848
0.0216376
0.0216902
0.0217507
0.0217973
0.0218538
0.0219739
0.0220381
0.0221743
0.0223271
0.022476
0.0227778
0.0230024
0.0233914
0.0238411
0.0243483
0.0251236
0.025889
0.0273364
0.0216792
0.0216714
0.0216581
0.021638
0.0216272
0.0216088
0.021596
0.0215797
0.0215674
0.0215503
0.0215383
0.0215213
0.0215091
0.0214958
0.02148
0.02147
0.0214541
0.0214436
0.0214299
0.021418
0.0214052
0.0213934
0.0213809
0.0213688
0.0213589
0.0213472
0.0213368
0.0213268
0.0213184
0.0213072
0.0212967
0.0212868
0.021278
0.021266
0.0212577
0.021247
0.0212371
0.0212285
0.0212178
0.0212103
0.0212013
0.0211935
0.0211828
0.0211776
0.0211672
0.0211621
0.021152
0.0211473
0.0211379
0.0211339
0.0211256
0.021122
0.0211156
0.0211125
0.0211081
0.0211063
0.0211028
0.0211014
0.0211012
0.0211009
0.021101
0.0211024
0.0211035
0.0211063
0.0211105
0.0211146
0.021121
0.0211295
0.021142
0.0211478
0.0211686
0.0211794
0.0212092
0.0212254
0.0212618
0.0212871
0.0213393
0.0213845
0.0214375
0.0214941
0.0215405
0.0216085
0.021647
0.0217049
0.0217608
0.0218034
0.0218675
0.0219886
0.0220604
0.0221881
0.022378
0.0225119
0.0228112
0.0230305
0.0234918
0.0238158
0.0245097
0.0250384
0.0261118
0.0271288
0.0217014
0.0216931
0.0216794
0.0216583
0.0216465
0.0216267
0.0216144
0.0215964
0.0215841
0.0215669
0.0215541
0.021537
0.0215221
0.0215103
0.0214927
0.0214825
0.0214664
0.0214555
0.0214418
0.0214281
0.0214172
0.0214022
0.0213922
0.0213775
0.0213684
0.0213559
0.0213464
0.0213335
0.0213271
0.0213145
0.0213059
0.0212925
0.0212856
0.0212727
0.0212635
0.0212549
0.0212427
0.0212347
0.0212242
0.0212163
0.0212064
0.0212008
0.021189
0.0211833
0.0211736
0.021168
0.0211586
0.0211533
0.0211442
0.0211401
0.0211322
0.0211273
0.0211224
0.0211176
0.0211138
0.0211112
0.0211083
0.0211057
0.021104
0.0211046
0.0211044
0.0211057
0.0211067
0.0211096
0.0211142
0.0211174
0.021126
0.0211314
0.0211468
0.0211542
0.0211716
0.0211848
0.0212138
0.0212342
0.0212729
0.0212991
0.0213369
0.0214107
0.0214513
0.0215134
0.0215549
0.0216179
0.0216688
0.0217119
0.0217756
0.0218196
0.0218944
0.0219834
0.0220882
0.0222062
0.0224183
0.0225455
0.0228336
0.0230632
0.0235192
0.023861
0.0245608
0.0250815
0.026229
0.0270066
0.0217178
0.0217092
0.0216955
0.0216734
0.0216605
0.0216406
0.0216272
0.0216094
0.0215962
0.021579
0.0215647
0.0215496
0.0215318
0.0215207
0.0215022
0.0214918
0.0214762
0.0214632
0.0214509
0.0214354
0.0214261
0.0214094
0.0214
0.0213846
0.0213744
0.0213615
0.0213535
0.0213391
0.0213317
0.0213192
0.0213111
0.0212974
0.0212887
0.0212777
0.0212667
0.0212591
0.021246
0.0212384
0.0212274
0.0212198
0.0212089
0.0212036
0.0211932
0.0211857
0.0211781
0.0211701
0.0211626
0.0211558
0.0211481
0.0211421
0.0211363
0.0211294
0.0211254
0.0211198
0.0211164
0.0211129
0.0211106
0.0211077
0.0211068
0.0211063
0.0211065
0.0211079
0.0211092
0.0211116
0.0211185
0.0211213
0.0211303
0.0211365
0.0211476
0.021166
0.0211764
0.0211982
0.0212166
0.0212543
0.0212782
0.0213268
0.0213587
0.0214232
0.0214671
0.0215253
0.021574
0.0216206
0.0216829
0.0217161
0.0217756
0.0218504
0.0219001
0.0220089
0.022118
0.0222183
0.0224457
0.0225974
0.0228148
0.0232144
0.0234599
0.024017
0.0244671
0.0251882
0.0261709
0.0270206
0.021729
0.0217204
0.0217053
0.021685
0.0216699
0.0216503
0.0216364
0.0216178
0.0216043
0.0215876
0.0215715
0.0215578
0.0215388
0.0215271
0.021509
0.0214975
0.0214822
0.0214689
0.0214566
0.0214414
0.0214309
0.0214148
0.0214047
0.0213893
0.0213794
0.0213649
0.0213573
0.0213427
0.0213346
0.0213217
0.0213133
0.0213013
0.0212894
0.0212813
0.0212678
0.0212611
0.0212478
0.0212407
0.0212288
0.0212225
0.0212116
0.0212043
0.0211973
0.0211863
0.0211815
0.0211717
0.0211661
0.021157
0.0211527
0.0211438
0.0211398
0.0211316
0.0211283
0.0211214
0.0211189
0.0211135
0.0211122
0.0211091
0.0211086
0.0211077
0.0211082
0.0211086
0.021112
0.0211141
0.0211171
0.0211261
0.0211307
0.0211401
0.0211476
0.021168
0.0211786
0.0212054
0.0212203
0.0212581
0.0212812
0.0213379
0.0213677
0.0214254
0.0214729
0.0215227
0.021583
0.0216205
0.0216822
0.0217269
0.0217641
0.0218532
0.0219106
0.022011
0.0221262
0.0222405
0.0224066
0.022659
0.0228155
0.0231491
0.0235486
0.02386
0.0245685
0.0250693
0.0260645
0.0268671
0.0217346
0.0217259
0.02171
0.0216908
0.021674
0.0216552
0.0216403
0.0216219
0.0216078
0.0215912
0.0215745
0.0215607
0.0215419
0.0215294
0.021512
0.0214996
0.021485
0.0214714
0.0214587
0.0214446
0.0214322
0.0214179
0.0214063
0.0213913
0.0213815
0.0213664
0.0213584
0.0213447
0.0213352
0.0213233
0.0213133
0.0213034
0.021289
0.0212822
0.0212689
0.0212613
0.0212486
0.0212417
0.0212297
0.0212227
0.0212137
0.0212048
0.0211976
0.0211896
0.0211818
0.0211737
0.0211677
0.0211583
0.0211541
0.0211457
0.0211416
0.021133
0.0211294
0.0211228
0.0211204
0.0211147
0.0211132
0.0211096
0.0211091
0.021108
0.0211079
0.0211096
0.0211109
0.0211148
0.0211177
0.0211253
0.0211307
0.0211412
0.0211494
0.0211704
0.0211802
0.0212066
0.021224
0.0212648
0.0212853
0.0213373
0.0213819
0.0214293
0.0214853
0.0215241
0.0215871
0.0216388
0.0216739
0.0217356
0.0217901
0.0218334
0.0219392
0.0220098
0.0221368
0.0222856
0.0223996
0.0226612
0.0228801
0.0231149
0.0236294
0.0239202
0.0246116
0.0251194
0.026248
0.0269666
0.0217347
0.0217259
0.021709
0.0216931
0.0216726
0.0216574
0.0216388
0.0216228
0.0216074
0.0215899
0.0215757
0.021558
0.0215444
0.021526
0.0215142
0.0214979
0.0214862
0.0214711
0.0214587
0.0214463
0.0214309
0.0214208
0.0214044
0.0213943
0.0213793
0.0213692
0.0213562
0.0213461
0.0213342
0.0213223
0.0213138
0.0213004
0.0212912
0.0212786
0.0212711
0.0212577
0.0212508
0.0212385
0.021232
0.0212204
0.0212148
0.0212045
0.0211987
0.0211909
0.0211812
0.0211768
0.0211674
0.0211624
0.0211531
0.0211487
0.0211399
0.0211362
0.0211288
0.0211259
0.0211197
0.0211172
0.0211122
0.0211098
0.0211091
0.0211064
0.0211063
0.0211068
0.0211083
0.0211105
0.0211172
0.0211201
0.0211295
0.0211363
0.0211513
0.0211612
0.0211843
0.0211971
0.0212306
0.0212497
0.0212969
0.0213217
0.0213801
0.0214214
0.0214827
0.0215289
0.0215759
0.0216402
0.0216785
0.0217354
0.0218
0.0218427
0.0219412
0.0220152
0.0221354
0.0222631
0.0224565
0.0226064
0.0229094
0.0231965
0.0234631
0.0240972
0.0244917
0.0253582
0.0259591
0.0273674
0.0217291
0.0217205
0.0217037
0.0216886
0.0216675
0.0216536
0.0216342
0.0216192
0.0216034
0.0215858
0.0215726
0.021554
0.0215417
0.0215226
0.0215116
0.021495
0.0214841
0.0214684
0.0214573
0.0214438
0.0214295
0.0214191
0.0214025
0.0213933
0.0213772
0.0213681
0.0213545
0.0213447
0.0213323
0.0213209
0.0213126
0.0212979
0.0212903
0.0212769
0.0212695
0.0212563
0.0212496
0.0212371
0.0212308
0.0212195
0.0212141
0.0212038
0.0211988
0.0211888
0.0211837
0.0211746
0.0211676
0.0211628
0.0211525
0.021148
0.0211401
0.0211361
0.021128
0.021125
0.0211187
0.0211165
0.0211108
0.0211092
0.021107
0.0211038
0.0211046
0.0211047
0.0211056
0.0211083
0.021112
0.021117
0.0211239
0.0211345
0.0211457
0.0211538
0.0211795
0.0211919
0.0212229
0.021241
0.0212868
0.021314
0.0213713
0.0214213
0.0214721
0.0215269
0.0215662
0.0216344
0.0216767
0.0217357
0.0217805
0.0218382
0.0219436
0.0220039
0.0221336
0.0222517
0.0224509
0.0225911
0.0229018
0.0231413
0.0235008
0.0240241
0.0244543
0.0251712
0.0259881
0.0271195
0.0217179
0.0217095
0.0216934
0.0216779
0.0216572
0.0216447
0.0216245
0.0216111
0.021595
0.0215774
0.021565
0.0215458
0.0215345
0.0215155
0.021505
0.021489
0.0214781
0.0214627
0.021453
0.0214378
0.0214257
0.0214137
0.0213986
0.021389
0.0213732
0.021365
0.0213507
0.0213408
0.0213278
0.0213188
0.0213079
0.0212948
0.0212869
0.0212738
0.0212653
0.0212542
0.0212464
0.0212345
0.021228
0.0212183
0.0212119
0.0212027
0.0211971
0.0211875
0.0211827
0.021173
0.021168
0.0211598
0.0211524
0.0211478
0.0211397
0.0211335
0.021128
0.0211235
0.0211165
0.0211138
0.0211092
0.0211074
0.021102
0.0211015
0.0211007
0.021101
0.0211018
0.0211044
0.0211059
0.0211136
0.0211175
0.0211289
0.0211371
0.0211523
0.0211659
0.0211891
0.0212119
0.0212331
0.0212797
0.0213128
0.0213581
0.0214174
0.0214631
0.0215264
0.0215657
0.0216327
0.0216722
0.0217337
0.0217715
0.0218499
0.0219129
0.0220062
0.0221455
0.02224
0.0224414
0.0226126
0.0228805
0.0231521
0.0235804
0.0239064
0.0246493
0.0251493
0.0262405
0.0270475
0.0217015
0.0216933
0.0216781
0.0216622
0.0216433
0.0216307
0.0216109
0.0215991
0.0215816
0.0215659
0.0215528
0.0215354
0.0215236
0.0215052
0.0214954
0.0214797
0.0214694
0.0214543
0.0214449
0.0214291
0.0214193
0.0214054
0.0213923
0.0213817
0.0213669
0.021359
0.0213441
0.0213348
0.0213229
0.0213142
0.0213003
0.0212909
0.0212806
0.0212698
0.0212599
0.0212506
0.0212414
0.0212309
0.0212242
0.0212154
0.0212086
0.0212007
0.0211941
0.021186
0.0211802
0.0211715
0.0211662
0.0211572
0.0211523
0.0211452
0.0211384
0.0211316
0.0211266
0.0211208
0.0211147
0.0211112
0.0211069
0.0211041
0.0210995
0.0210985
0.0210963
0.0210963
0.0210967
0.0210978
0.0210999
0.0211054
0.0211088
0.0211194
0.0211256
0.0211428
0.0211525
0.0211779
0.0211932
0.021228
0.0212511
0.0213009
0.0213312
0.0213966
0.0214395
0.021514
0.0215538
0.02162
0.0216605
0.0217136
0.0217702
0.0218337
0.0218957
0.0219966
0.02212
0.0222156
0.0224145
0.0226117
0.0227887
0.0231947
0.0234724
0.0239802
0.0245369
0.0251508
0.0262518
0.0271088
0.0216793
0.0216715
0.0216577
0.0216407
0.0216248
0.0216116
0.0215934
0.021582
0.0215642
0.0215501
0.0215371
0.021521
0.0215081
0.0214927
0.0214821
0.0214673
0.0214567
0.0214429
0.0214325
0.0214183
0.0214089
0.0213944
0.0213832
0.0213716
0.0213587
0.0213493
0.0213356
0.0213267
0.0213151
0.0213059
0.0212918
0.0212846
0.0212721
0.0212639
0.0212518
0.0212441
0.0212336
0.0212254
0.0212174
0.0212097
0.021202
0.0211962
0.0211873
0.0211825
0.0211736
0.0211679
0.0211607
0.0211521
0.0211484
0.0211402
0.0211343
0.0211262
0.0211224
0.0211156
0.0211105
0.021106
0.0211018
0.0210978
0.0210943
0.0210909
0.0210899
0.0210887
0.0210891
0.0210897
0.0210927
0.0210953
0.0211019
0.0211088
0.0211163
0.0211334
0.0211437
0.0211685
0.021183
0.0212198
0.0212418
0.0212899
0.0213196
0.0213849
0.0214292
0.0214966
0.0215455
0.0216005
0.0216541
0.0217011
0.0217609
0.0218272
0.0218801
0.0219895
0.0221059
0.022198
0.0224035
0.0225705
0.0227844
0.0231739
0.0234456
0.0239379
0.0245817
0.0251233
0.0262633
0.0271569
0.0216523
0.0216449
0.0216323
0.0216162
0.0216012
0.0215885
0.0215716
0.0215608
0.021543
0.0215318
0.021517
0.0215041
0.0214899
0.0214775
0.0214659
0.0214524
0.0214424
0.0214294
0.0214182
0.0214065
0.0213955
0.0213827
0.0213722
0.0213601
0.0213494
0.0213389
0.0213262
0.021318
0.021306
0.021297
0.0212836
0.0212771
0.0212644
0.0212573
0.0212448
0.0212383
0.0212274
0.0212205
0.021212
0.021205
0.0211975
0.0211919
0.0211835
0.0211784
0.0211703
0.0211642
0.0211569
0.0211497
0.0211451
0.0211355
0.0211312
0.0211224
0.0211187
0.021112
0.021106
0.0211026
0.0210979
0.0210917
0.0210893
0.0210861
0.0210842
0.0210821
0.0210814
0.0210819
0.021084
0.0210858
0.0210924
0.0210959
0.0211059
0.0211171
0.0211255
0.0211456
0.0211676
0.0211924
0.0212152
0.0212623
0.0213
0.0213568
0.0214104
0.0214655
0.0215306
0.0215787
0.0216451
0.0216914
0.0217512
0.0218159
0.0218654
0.0219829
0.0220689
0.02219
0.022377
0.0225154
0.0227983
0.0231083
0.0234159
0.0239164
0.024565
0.0250905
0.0263238
0.0272272
0.0216195
0.0216127
0.0216008
0.0215865
0.0215729
0.0215603
0.0215455
0.0215343
0.0215181
0.0215086
0.0214941
0.0214822
0.0214685
0.021458
0.0214457
0.0214341
0.0214235
0.0214119
0.0214009
0.0213905
0.0213796
0.0213678
0.0213579
0.0213452
0.0213364
0.0213249
0.0213141
0.0213052
0.0212942
0.0212843
0.0212729
0.0212651
0.0212538
0.0212457
0.0212344
0.0212274
0.0212163
0.0212109
0.0212014
0.0211955
0.0211873
0.0211816
0.021175
0.0211679
0.0211628
0.0211552
0.0211479
0.0211434
0.0211354
0.0211271
0.0211236
0.0211157
0.0211114
0.0211037
0.0210995
0.0210953
0.0210905
0.0210849
0.021083
0.0210795
0.0210762
0.0210753
0.0210737
0.0210748
0.0210758
0.0210774
0.0210821
0.0210857
0.0210968
0.021102
0.0211172
0.0211315
0.0211581
0.0211728
0.021206
0.0212341
0.0212888
0.0213229
0.0213901
0.0214394
0.0215116
0.0215579
0.0216326
0.0216805
0.0217466
0.0218011
0.0218489
0.0219628
0.0220358
0.0221817
0.0223242
0.0224697
0.0228017
0.0230254
0.0233872
0.0238787
0.0244406
0.0251354
0.0261427
0.0273763
0.0215823
0.0215761
0.0215656
0.0215524
0.0215404
0.0215288
0.0215157
0.0215047
0.0214908
0.0214825
0.0214676
0.0214581
0.0214445
0.0214361
0.0214233
0.0214136
0.0214032
0.0213925
0.0213825
0.0213728
0.0213624
0.0213518
0.0213426
0.0213302
0.0213226
0.0213111
0.0213017
0.0212932
0.021283
0.0212733
0.0212635
0.0212558
0.0212462
0.0212378
0.0212279
0.0212207
0.0212103
0.0212053
0.0211956
0.0211903
0.0211817
0.0211766
0.0211698
0.0211632
0.0211572
0.021151
0.0211424
0.0211383
0.0211301
0.0211227
0.0211187
0.0211102
0.021106
0.0210982
0.0210948
0.0210878
0.0210825
0.021078
0.0210744
0.0210698
0.0210673
0.0210658
0.0210628
0.0210642
0.0210643
0.0210654
0.0210693
0.0210725
0.0210814
0.0210866
0.0211048
0.021114
0.0211357
0.0211494
0.0211872
0.0212087
0.0212606
0.0212908
0.0213568
0.0214087
0.0214884
0.0215347
0.021613
0.0216652
0.0217338
0.0217908
0.0218375
0.0219425
0.0220172
0.0221677
0.0222917
0.0224687
0.022782
0.0229771
0.0233641
0.0238851
0.024353
0.0252308
0.0261436
0.027377
0.0215395
0.0215341
0.0215247
0.0215134
0.021503
0.021492
0.021481
0.0214707
0.0214588
0.0214514
0.0214374
0.0214295
0.021417
0.0214093
0.0213972
0.021389
0.0213784
0.0213695
0.0213601
0.021351
0.0213414
0.0213309
0.0213227
0.0213106
0.0213034
0.0212919
0.0212837
0.0212743
0.021265
0.0212545
0.0212466
0.0212369
0.0212298
0.0212197
0.0212126
0.0212044
0.0211958
0.0211911
0.0211816
0.0211771
0.0211692
0.0211653
0.0211578
0.0211536
0.0211454
0.0211411
0.0211325
0.0211284
0.0211206
0.0211144
0.0211099
0.0211027
0.0210981
0.0210916
0.0210889
0.021082
0.0210782
0.0210729
0.02107
0.0210652
0.0210621
0.0210603
0.0210569
0.0210576
0.0210574
0.0210586
0.0210607
0.021065
0.0210696
0.0210769
0.0210915
0.0210994
0.0211168
0.0211303
0.021165
0.0211829
0.0212298
0.0212557
0.0213225
0.021365
0.021444
0.0214924
0.0215709
0.0216332
0.0216951
0.0217703
0.0218164
0.0219139
0.0219852
0.0221379
0.0222491
0.022463
0.0226872
0.0229724
0.0232962
0.0238789
0.0243097
0.0252116
0.0260748
0.0276189
0.0214927
0.0214881
0.0214804
0.0214708
0.0214619
0.0214524
0.0214432
0.0214337
0.0214245
0.0214175
0.021405
0.0213985
0.0213876
0.0213808
0.0213694
0.021363
0.021353
0.0213456
0.0213375
0.0213291
0.0213213
0.0213118
0.0213054
0.0212947
0.0212889
0.0212786
0.0212717
0.0212627
0.0212544
0.0212445
0.0212372
0.021228
0.0212211
0.021211
0.0212044
0.0211959
0.0211886
0.021182
0.0211745
0.0211696
0.0211616
0.0211576
0.0211507
0.021146
0.0211379
0.0211336
0.021125
0.0211204
0.0211116
0.0211063
0.0211006
0.0210936
0.0210873
0.021082
0.0210778
0.0210703
0.0210675
0.0210624
0.0210597
0.0210552
0.0210516
0.0210492
0.0210479
0.0210466
0.0210453
0.0210463
0.0210482
0.0210537
0.0210572
0.0210656
0.0210745
0.0210837
0.0211044
0.0211193
0.0211499
0.0211694
0.0212128
0.0212407
0.0213053
0.0213477
0.0214261
0.021478
0.0215524
0.0216207
0.021674
0.0217572
0.0218034
0.021896
0.0219651
0.0221111
0.0222208
0.0224472
0.022628
0.0229661
0.023257
0.0238469
0.0242933
0.0252067
0.0260037
0.0278053
0.0214406
0.0214369
0.021431
0.0214228
0.0214165
0.0214074
0.0214009
0.0213925
0.0213857
0.0213788
0.0213686
0.0213624
0.0213538
0.0213468
0.021337
0.0213312
0.0213212
0.0213153
0.0213071
0.0212991
0.0212911
0.021282
0.0212753
0.0212654
0.0212593
0.0212498
0.0212443
0.0212358
0.021229
0.0212213
0.0212145
0.0212078
0.0212013
0.0211928
0.0211863
0.0211785
0.021173
0.0211648
0.0211594
0.0211556
0.0211485
0.0211443
0.0211399
0.0211352
0.021128
0.0211241
0.021117
0.0211133
0.0211054
0.0211007
0.0210953
0.0210884
0.0210822
0.0210771
0.0210723
0.0210649
0.021062
0.0210564
0.0210526
0.0210484
0.0210448
0.0210434
0.0210395
0.0210385
0.021037
0.0210374
0.0210382
0.0210419
0.0210445
0.0210503
0.0210587
0.0210658
0.0210807
0.0210937
0.0211177
0.0211366
0.0211757
0.0212051
0.0212652
0.0213067
0.0213844
0.021452
0.0215205
0.0216013
0.0216462
0.0217361
0.0217854
0.0218716
0.0219378
0.0220729
0.0221772
0.0224006
0.0225732
0.0229318
0.0232185
0.023808
0.024283
0.0252944
0.0260535
0.0277862
0.0213851
0.0213824
0.0213784
0.0213719
0.021368
0.0213602
0.0213559
0.021349
0.0213442
0.0213383
0.021331
0.0213263
0.0213199
0.0213147
0.0213073
0.0213038
0.0212963
0.0212923
0.0212859
0.0212801
0.0212732
0.0212657
0.0212592
0.0212508
0.0212446
0.0212359
0.0212307
0.0212217
0.0212157
0.0212075
0.0212006
0.0211946
0.0211872
0.0211801
0.0211737
0.0211679
0.0211613
0.0211531
0.0211488
0.0211441
0.0211365
0.0211308
0.0211261
0.0211208
0.0211136
0.0211093
0.0211022
0.021098
0.021091
0.0210871
0.0210826
0.0210763
0.0210709
0.0210668
0.0210608
0.0210549
0.0210513
0.0210446
0.021042
0.0210372
0.0210341
0.0210315
0.0210284
0.0210266
0.0210248
0.021025
0.0210256
0.0210278
0.0210301
0.0210372
0.0210451
0.0210536
0.0210705
0.0210832
0.0211044
0.0211217
0.0211602
0.0211889
0.0212422
0.021279
0.0213534
0.0214302
0.0214978
0.0215842
0.0216312
0.0217227
0.021776
0.0218596
0.0219227
0.0220517
0.0221542
0.0223701
0.0225319
0.0228779
0.0231471
0.0237485
0.0242168
0.0252067
0.026311
0.0276938
0.0213245
0.0213228
0.0213207
0.0213167
0.0213144
0.0213091
0.0213059
0.0213001
0.0212969
0.0212912
0.0212855
0.0212803
0.0212743
0.021268
0.0212616
0.0212575
0.0212506
0.021247
0.0212411
0.0212373
0.021232
0.0212276
0.0212223
0.0212178
0.0212127
0.0212065
0.0212028
0.0211952
0.0211906
0.0211853
0.0211792
0.0211752
0.021168
0.0211626
0.0211555
0.0211503
0.0211457
0.0211384
0.0211348
0.0211304
0.0211252
0.0211213
0.0211177
0.0211128
0.0211062
0.021102
0.0210949
0.0210907
0.0210838
0.0210798
0.0210753
0.0210692
0.021064
0.0210605
0.0210547
0.0210492
0.0210452
0.0210391
0.0210363
0.0210315
0.0210286
0.0210252
0.0210223
0.0210204
0.0210184
0.0210181
0.0210188
0.0210201
0.0210219
0.0210268
0.0210303
0.0210362
0.0210502
0.0210615
0.0210771
0.0211013
0.0211327
0.0211577
0.0212003
0.0212501
0.0213003
0.0213836
0.0214485
0.0215436
0.0216013
0.021695
0.021757
0.021839
0.0218976
0.0220234
0.0221236
0.0223263
0.022508
0.0228286
0.023142
0.0236846
0.0242215
0.0250349
0.0263117
0.0277972
0.0212613
0.0212603
0.0212598
0.0212587
0.0212583
0.0212571
0.0212564
0.0212547
0.021254
0.0212522
0.02125
0.0212485
0.0212458
0.0212413
0.021237
0.0212338
0.021228
0.0212253
0.0212196
0.021216
0.0212095
0.0212059
0.0212001
0.021196
0.0211901
0.0211845
0.0211808
0.0211736
0.021169
0.0211628
0.0211576
0.0211524
0.0211467
0.021142
0.0211361
0.0211318
0.0211266
0.0211208
0.021118
0.0211134
0.0211089
0.0211036
0.0211
0.0210951
0.0210907
0.0210859
0.0210791
0.0210754
0.0210688
0.0210647
0.0210585
0.0210527
0.0210472
0.0210443
0.021039
0.0210338
0.0210304
0.0210249
0.0210218
0.0210175
0.0210145
0.0210098
0.0210072
0.0210061
0.0210039
0.0210038
0.0210044
0.0210058
0.0210093
0.0210156
0.0210198
0.0210282
0.0210419
0.0210516
0.0210652
0.0210923
0.0211179
0.0211444
0.0211799
0.0212356
0.0212783
0.0213584
0.021425
0.02152
0.021584
0.0216774
0.0217416
0.0218276
0.0218848
0.0220029
0.0221035
0.0222844
0.0224881
0.02277
0.0231485
0.0235938
0.0243341
0.0250244
0.0263395
0.0279906
0.0211929
0.0211957
0.0211948
0.0211931
0.0211919
0.0211902
0.0211894
0.0211884
0.0211879
0.0211874
0.0211868
0.0211857
0.0211852
0.0211842
0.0211833
0.0211824
0.0211806
0.0211795
0.0211774
0.0211757
0.0211721
0.0211701
0.021166
0.0211638
0.0211602
0.0211564
0.0211542
0.0211489
0.021146
0.0211418
0.0211384
0.0211348
0.0211289
0.0211258
0.0211194
0.0211158
0.0211117
0.0211056
0.0211033
0.021099
0.0210963
0.021092
0.0210898
0.0210859
0.021081
0.0210784