/*--------------------------------*- C++ -*----------------------------------*\
| =========                 |                                                 |
| \\      /  F ield         | OpenFOAM: The Open Source CFD Toolbox           |
|  \\    /   O peration     | Version:  2.3.1                                 |
|   \\  /    A nd           | Web:      www.OpenFOAM.org                      |
|    \\/     M anipulation  |                                                 |
\*---------------------------------------------------------------------------*/
FoamFile
{
    version     2.0;
    format      ascii;
    class       volScalarField;
    location    "1000";
    object      omega;
}
// * * * * * * * * * * * * * * * * * * * * * * * * * * * * * * * * * * * * * //

dimensions      [0 0 -1 0 0 0 0];

internalField   nonuniform List<scalar> 
4825
(
0.00493026
0.0049307
0.00493063
0.00493057
0.00493048
0.00493035
0.00493018
0.00492982
0.00492945
0.00492885
0.00492803
0.00492709
0.00492659
0.00492602
0.00492512
0.00492382
0.00492226
0.00492138
0.00492045
0.00491737
0.00491494
0.00491277
0.00491058
0.00490846
0.00490673
0.00490527
0.00490456
0.0049021
0.00489926
0.00489864
0.00489797
0.00489805
0.00489797
0.00489714
0.00489703
0.0048983
0.00490234
0.00490778
0.00491492
0.00493337
0.00495471
0.00499179
0.0050342
0.00512904
0.00524121
0.00539988
0.00574447
0.00607986
0.00675077
0.00776888
0.00496032
0.0049598
0.00495856
0.00495731
0.00495583
0.00495424
0.00495272
0.00495057
0.00494861
0.00494623
0.004944
0.00494155
0.00493888
0.00493687
0.00493441
0.0049304
0.00492725
0.00492534
0.00492227
0.00491802
0.00491561
0.00491286
0.00491037
0.00490833
0.0049074
0.00490631
0.00490515
0.0049027
0.00490089
0.00490033
0.00490021
0.00490033
0.00490059
0.00490179
0.0049035
0.00490761
0.0049142
0.00492482
0.00493516
0.00495844
0.00498637
0.00503662
0.00509013
0.00519391
0.00532533
0.00548513
0.00583444
0.00618947
0.00686661
0.00780597
0.00498618
0.00498476
0.00498169
0.00497841
0.00497546
0.00497222
0.00496876
0.00496531
0.0049616
0.00495808
0.00495462
0.0049516
0.00494793
0.00494507
0.00494255
0.00493886
0.00493549
0.00493328
0.00493171
0.0049279
0.00492459
0.0049224
0.00491988
0.00491793
0.00491588
0.00491387
0.00491306
0.00491129
0.00490763
0.00490645
0.00490597
0.00490639
0.00490746
0.00491003
0.0049126
0.00491643
0.00492426
0.00493574
0.00494551
0.00496881
0.00499818
0.00505294
0.005108
0.00521953
0.00535536
0.00551712
0.0058737
0.00623037
0.00690858
0.00774415
0.00500831
0.00500614
0.00500167
0.00499669
0.00499269
0.00498829
0.00498355
0.00497968
0.00497454
0.00497078
0.00496645
0.00496236
0.00495862
0.00495516
0.00495191
0.00494775
0.00494355
0.00494058
0.0049383
0.00493362
0.00492984
0.00492696
0.00492354
0.00492134
0.00491844
0.00491581
0.00491492
0.00491372
0.00491006
0.00490858
0.00490841
0.00490871
0.00491051
0.00491354
0.00491869
0.00492182
0.00493247
0.00494454
0.00496176
0.00497954
0.00502305
0.00506551
0.00513971
0.00526556
0.00541115
0.00557421
0.00591654
0.00627248
0.00693238
0.00769082
0.00502566
0.00502288
0.0050173
0.00501101
0.00500579
0.00500091
0.00499446
0.00499038
0.00498421
0.00497948
0.00497444
0.00496963
0.00496543
0.00496097
0.00495742
0.00495335
0.00494757
0.00494428
0.0049412
0.00493748
0.00493265
0.00493005
0.00492594
0.00492411
0.00492215
0.00491852
0.00491709
0.00491657
0.00491503
0.0049134
0.0049136
0.00491395
0.00491584
0.00491854
0.00492586
0.00493138
0.00494126
0.00495517
0.00497887
0.00500062
0.00504791
0.00509072
0.00516619
0.00529192
0.00546725
0.00562277
0.005949
0.00630205
0.00698009
0.00772854
0.00503845
0.00503528
0.0050289
0.00502208
0.00501583
0.00501
0.00500324
0.00499801
0.00499179
0.00498634
0.00498128
0.00497579
0.00497093
0.00496607
0.00496145
0.00495788
0.00495182
0.00494788
0.00494419
0.00494129
0.00493667
0.0049327
0.00492908
0.00492608
0.00492459
0.00492165
0.00491922
0.00491852
0.00491711
0.00491568
0.0049158
0.00491657
0.00491829
0.0049212
0.00492798
0.00493565
0.00494431
0.00496386
0.00498692
0.00501104
0.00505904
0.0051222
0.0051845
0.00530469
0.00549821
0.00565666
0.00596305
0.00632645
0.00694252
0.00776131
0.00504618
0.00504268
0.00503564
0.00502827
0.00502141
0.00501478
0.00500798
0.00500195
0.0049956
0.00498966
0.00498425
0.00497857
0.00497338
0.00496814
0.00496337
0.0049597
0.00495369
0.0049491
0.00494536
0.00494288
0.00493801
0.00493378
0.00493099
0.00492668
0.00492504
0.00492344
0.00492022
0.00491958
0.00491788
0.00491742
0.00491753
0.00491877
0.00492062
0.00492448
0.00493286
0.00494048
0.00495057
0.00497459
0.00499569
0.00502215
0.00509065
0.0051408
0.00523804
0.00532452
0.00550145
0.00577597
0.00596857
0.00642672
0.00690699
0.00775935
0.00504878
0.0050452
0.00503797
0.00503047
0.00502341
0.0050164
0.00500982
0.00500329
0.00499714
0.00499101
0.00498541
0.00497983
0.00497443
0.00496887
0.00496428
0.00496019
0.00495501
0.00494915
0.00494596
0.00494376
0.00493878
0.0049343
0.00493189
0.0049276
0.00492512
0.00492392
0.00492119
0.00492021
0.00491849
0.0049174
0.00491801
0.00491905
0.0049217
0.00492656
0.00493097
0.00494454
0.00495453
0.00496945
0.00500349
0.00502577
0.00508497
0.00513528
0.00524151
0.00533636
0.00547401
0.005791
0.00598197
0.0064339
0.006887
0.00765357
0.0050462
0.00504271
0.00503555
0.0050285
0.00502135
0.00501451
0.00500818
0.00500169
0.00499567
0.00498998
0.00498398
0.00497905
0.00497311
0.00496808
0.00496349
0.00495904
0.0049541
0.00494852
0.00494566
0.00494312
0.00493757
0.0049348
0.00493054
0.00492776
0.00492449
0.00492312
0.00492099
0.00491963
0.00491731
0.00491657
0.00491733
0.00491806
0.00492101
0.00492506
0.00492959
0.00494432
0.00495296
0.0049684
0.0050031
0.00503581
0.00506498
0.00514636
0.00522142
0.0053713
0.00551083
0.00568574
0.00605744
0.00641457
0.00699852
0.00770947
0.0050385
0.00503532
0.00502864
0.0050226
0.00501572
0.00500942
0.00500365
0.00499754
0.00499201
0.0049869
0.00498089
0.00497651
0.00497052
0.00496596
0.00496147
0.00495705
0.00495215
0.00494719
0.00494465
0.00494147
0.00493653
0.00493375
0.00492954
0.0049267
0.00492371
0.00492239
0.00492028
0.00491778
0.00491509
0.00491462
0.00491459
0.00491515
0.00491742
0.00492077
0.00492754
0.00493735
0.00494531
0.00496431
0.00498919
0.00501204
0.00506268
0.00511606
0.00521741
0.00530955
0.00549242
0.00565619
0.006014
0.00634173
0.00698169
0.00764287
0.0050257
0.00502292
0.00501681
0.00501234
0.00500547
0.00500001
0.00499491
0.00498926
0.00498454
0.00497998
0.00497466
0.00497069
0.0049648
0.00496101
0.00495664
0.00495259
0.00494741
0.00494391
0.00494184
0.0049375
0.00493387
0.00493073
0.00492676
0.00492334
0.004922
0.00492062
0.00491774
0.00491435
0.00491226
0.0049122
0.00491232
0.00491322
0.00491552
0.00491829
0.00492476
0.00492992
0.00493878
0.00496158
0.00497833
0.0050031
0.00505857
0.00510348
0.00519142
0.00527959
0.00546513
0.00562883
0.0059662
0.00637187
0.00687119
0.00781436
0.00500834
0.00500617
0.00500147
0.00499769
0.00499207
0.00498798
0.00498345
0.0049789
0.00497509
0.00497089
0.00496681
0.00496304
0.00495864
0.00495511
0.00495136
0.00494725
0.00494275
0.00494045
0.00493809
0.00493428
0.00493091
0.00492783
0.00492392
0.00492097
0.00491963
0.0049166
0.00491359
0.00491025
0.00490928
0.00490865
0.00490785
0.00490815
0.00490959
0.0049114
0.00491608
0.00492081
0.0049309
0.00495289
0.00496498
0.00498878
0.00504192
0.00508211
0.00515883
0.00526654
0.00539956
0.00563315
0.00591517
0.00634213
0.00684055
0.00799423
0.0049862
0.00498477
0.00498172
0.00497893
0.004975
0.00497192
0.00496835
0.0049651
0.00496179
0.00495858
0.00495531
0.0049516
0.00494832
0.00494463
0.004942
0.00493862
0.00493461
0.00493276
0.00493124
0.00492802
0.00492569
0.00492368
0.00492052
0.00491857
0.00491722
0.00491388
0.00491094
0.00490835
0.00490761
0.0049062
0.00490499
0.00490513
0.00490582
0.00490727
0.00491055
0.00491418
0.00492585
0.00493883
0.00494871
0.00497329
0.00501354
0.00504671
0.00511935
0.00523524
0.00534911
0.00559317
0.00586649
0.00626775
0.00681564
0.0079186
0.00496034
0.00495982
0.00495863
0.00495738
0.00495579
0.00495418
0.00495223
0.0049506
0.00494865
0.00494667
0.00494466
0.00494148
0.00493892
0.00493649
0.00493388
0.00493005
0.00492706
0.00492525
0.00492239
0.00491836
0.00491587
0.00491368
0.00491125
0.00491
0.00490822
0.00490518
0.00490269
0.00490174
0.00490117
0.00489969
0.00489854
0.00489865
0.00489929
0.00490121
0.0049043
0.0049079
0.00491851
0.00492987
0.00493969
0.00496486
0.00499528
0.00502983
0.00509816
0.00520451
0.00531746
0.0055575
0.00581664
0.00623177
0.00689818
0.00790175
0.00493026
0.00493069
0.00493062
0.00493055
0.00493046
0.00493031
0.00493001
0.00492975
0.00492941
0.00492909
0.00492844
0.00492743
0.00492671
0.00492586
0.00492458
0.00492283
0.00492158
0.00492062
0.00491985
0.0049178
0.00491546
0.0049138
0.0049112
0.00490969
0.00490821
0.00490549
0.00490274
0.00490119
0.00489965
0.00489792
0.00489617
0.00489563
0.00489582
0.00489661
0.00489883
0.00490056
0.00490706
0.00491172
0.00491927
0.00494118
0.00496409
0.00499059
0.00504718
0.00513376
0.00522839
0.00543954
0.00568968
0.00614
0.00694981
0.00804605
0.00456507
0.00456998
0.00457124
0.0045848
0.00459961
0.00461283
0.00462434
0.00463412
0.00464274
0.00465122
0.00466058
0.00467107
0.00468189
0.00469152
0.00469883
0.00470512
0.00471267
0.00472132
0.00472936
0.00473661
0.00474332
0.00475033
0.00475837
0.00476603
0.00477342
0.00478101
0.00479087
0.00480032
0.00481052
0.00482388
0.00483922
0.00486324
0.00489516
0.00493001
0.0049929
0.00507065
0.0051692
0.0053279
0.00551612
0.00577237
0.00607008
0.00648239
0.00710715
0.00774576
0.00860676
0.0097314
0.0116213
0.0147804
0.0209823
0.0289015
0.00457476
0.00460466
0.00461309
0.00462543
0.00463625
0.00464516
0.00465311
0.00466084
0.00466905
0.0046784
0.00468871
0.00469899
0.00470734
0.00471392
0.00471969
0.00472607
0.00473416
0.00474216
0.00474854
0.00475429
0.00476018
0.00476706
0.00477395
0.00478055
0.00478719
0.0047951
0.00480434
0.00481273
0.00482581
0.00484006
0.00485605
0.0048846
0.0049185
0.00495991
0.005031
0.00510993
0.00522242
0.00538417
0.00557203
0.00582973
0.00613616
0.00654098
0.00711545
0.00770984
0.00851456
0.00953725
0.0112187
0.0135023
0.0167488
0.0229694
0.0045955
0.00462367
0.00463092
0.00464089
0.00464923
0.00465666
0.00466392
0.00467161
0.00468026
0.0046902
0.00470081
0.00471015
0.00471695
0.0047225
0.0047282
0.00473511
0.00474329
0.00475043
0.00475616
0.00476148
0.00476724
0.00477407
0.00478006
0.00478621
0.0047925
0.0048
0.00480803
0.00481617
0.00483065
0.00484358
0.00485732
0.00488338
0.00490811
0.00494254
0.004999
0.00505469
0.00513996
0.00525507
0.00538432
0.00555603
0.00582458
0.00609026
0.00647436
0.00694777
0.00763983
0.0084348
0.00976435
0.0115946
0.0145642
0.0189296
0.00461176
0.00465724
0.00465988
0.00466542
0.00467168
0.00467842
0.00468605
0.00469494
0.00470509
0.00471563
0.00472385
0.0047297
0.00473483
0.00473959
0.00474622
0.00475454
0.0047615
0.00476613
0.00477111
0.00477598
0.00478181
0.00478769
0.00479193
0.00479748
0.00480368
0.0048107
0.00481573
0.00482378
0.00483664
0.00484856
0.00485941
0.00488154
0.00490524
0.00493795
0.00498943
0.00503877
0.00511312
0.00521695
0.00532834
0.0054634
0.00572487
0.0059665
0.00629512
0.00672443
0.00739105
0.00811359
0.00933035
0.0109075
0.013295
0.0164555
0.00462358
0.00467173
0.00467252
0.00467724
0.00468379
0.00469198
0.00470143
0.00471158
0.00472144
0.00472913
0.00473445
0.00473913
0.00474427
0.00475034
0.00475801
0.00476567
0.00477029
0.00477411
0.00477888
0.00478402
0.00478998
0.00479441
0.00479827
0.0048036
0.0048103
0.00481725
0.00482186
0.00483002
0.00483918
0.00485095
0.00486522
0.00488074
0.00490476
0.00493359
0.00496731
0.0050059
0.00505264
0.00514367
0.00523726
0.0053272
0.00551618
0.0057428
0.00604327
0.0063499
0.00692475
0.0074992
0.00851263
0.00963298
0.0117649
0.0149008
0.0046323
0.00469248
0.00469538
0.00470163
0.00471016
0.00471965
0.00472906
0.00473755
0.00474406
0.00474864
0.00475289
0.00475779
0.00476404
0.00477122
0.00477789
0.00478238
0.00478598
0.00479025
0.00479448
0.00479953
0.00480377
0.004807
0.00481091
0.00481533
0.00482002
0.0048243
0.00483164
0.00484032
0.00484302
0.00485289
0.00486793
0.00487821
0.00489577
0.0049239
0.00494648
0.00498961
0.00503204
0.0051147
0.00520071
0.00528629
0.00544555
0.0056392
0.00595419
0.00621644
0.00675646
0.00727525
0.00824195
0.00918787
0.0109453
0.0128676
0.00463517
0.00470858
0.00471416
0.00472136
0.00473
0.0047381
0.00474515
0.0047508
0.00475525
0.00475934
0.00476467
0.00477083
0.00477744
0.00478405
0.00478856
0.00479112
0.00479465
0.00479939
0.00480372
0.00480818
0.00481074
0.00481383
0.00481798
0.00482234
0.00482563
0.00482885
0.00483694
0.00484546
0.00485019
0.00485446
0.00486825
0.00487852
0.00489185
0.00492117
0.00493848
0.0049734
0.00501187
0.0050463
0.00512039
0.00520521
0.00533587
0.00544054
0.00569852
0.00597095
0.00638693
0.00684343
0.0076606
0.00838457
0.0103182
0.0121972
0.00463563
0.00473176
0.00474119
0.00474914
0.00475671
0.0047628
0.00476774
0.00477172
0.00477578
0.00478084
0.00478704
0.00479315
0.00479832
0.00480215
0.00480526
0.00480806
0.0048115
0.00481551
0.00482008
0.00482231
0.0048242
0.00482721
0.00483033
0.00483413
0.00483684
0.00483894
0.00484197
0.00484779
0.00485595
0.00486035
0.00486814
0.00487936
0.00488791
0.00490612
0.00492163
0.0049431
0.00497941
0.00502027
0.00509412
0.00515902
0.00529376
0.00538771
0.00559828
0.00589257
0.00625035
0.00670261
0.00745552
0.00803703
0.00945503
0.0107864
0.00463021
0.00475677
0.00476551
0.00477064
0.00477451
0.00477787
0.00478149
0.0047855
0.00479051
0.00479641
0.00480204
0.00480664
0.00480999
0.00481248
0.00481505
0.00481865
0.00482221
0.00482577
0.00482839
0.00482952
0.00483229
0.00483549
0.00483745
0.00483995
0.00484411
0.00484957
0.00485037
0.0048512
0.00485824
0.00486497
0.0048682
0.00487732
0.0048844
0.00489945
0.00491728
0.00493381
0.00496686
0.00500382
0.00506869
0.0050874
0.00517364
0.00531063
0.0054365
0.00572299
0.00598867
0.00636995
0.0069831
0.00754662
0.00879702
0.0104297
0.00462083
0.00478042
0.00478799
0.00479111
0.00479452
0.00479876
0.00480383
0.00480939
0.00481533
0.00482045
0.00482378
0.00482591
0.00482843
0.00483079
0.00483326
0.00483616
0.00483969
0.00484203
0.00484264
0.00484424
0.00484688
0.00484877
0.00485018
0.00485092
0.00485236
0.00485553
0.0048597
0.00485994
0.00486046
0.00486669
0.00486954
0.00487632
0.0048848
0.00489697
0.00490869
0.00491952
0.00494558
0.00496904
0.00501815
0.0050648
0.00510436
0.00524076
0.00538136
0.00564064
0.00590632
0.00625838
0.00681102
0.00740462
0.00845421
0.00966942
0.00460685
0.00480104
0.00480896
0.00481186
0.00481599
0.0048204
0.00482463
0.00482862
0.0048321
0.00483421
0.00483578
0.00483773
0.00484049
0.00484333
0.00484592
0.00484837
0.00485002
0.00485038
0.00485134
0.00485378
0.00485525
0.0048559
0.00485749
0.0048591
0.00485896
0.00485973
0.00486316
0.0048664
0.00486751
0.00487118
0.00487216
0.00487611
0.00488561
0.00489329
0.00489761
0.00490886
0.00493768
0.0049544
0.00497573
0.00502944
0.00508001
0.0051927
0.0052975
0.0054577
0.00568924
0.00590492
0.0064305
0.00702487
0.00792194
0.00937065
0.00458933
0.00482302
0.00483209
0.00483595
0.00484013
0.00484378
0.00484711
0.00484985
0.00485174
0.00485333
0.00485592
0.00485898
0.00486114
0.00486253
0.00486456
0.00486587
0.00486612
0.00486647
0.00486796
0.00486876
0.004869
0.00486954
0.00486999
0.00487032
0.00487102
0.00486954
0.00486814
0.00486988
0.00487302
0.00487443
0.00487575
0.00487991
0.00488586
0.00488739
0.00489374
0.00490634
0.00492715
0.00494732
0.00495818
0.00498989
0.00503351
0.00514352
0.00521797
0.00533607
0.00552525
0.00579536
0.006292
0.00692157
0.00780115
0.0090636
0.00456746
0.00484905
0.00485738
0.00486051
0.00486288
0.00486481
0.00486672
0.00486804
0.00486911
0.00487054
0.00487226
0.00487345
0.00487416
0.00487518
0.00487606
0.00487638
0.00487689
0.00487777
0.00487821
0.004878
0.00487812
0.00487818
0.00487792
0.0048775
0.00487821
0.00487994
0.00487887
0.00487855
0.00487767
0.00487727
0.00488021
0.00488334
0.0048843
0.00488592
0.00489387
0.0049073
0.00491407
0.00492189
0.00493422
0.00496792
0.00500765
0.00507884
0.00514568
0.0052922
0.00547241
0.00574689
0.00601825
0.00656834
0.00737865
0.00849123
0.00454183
0.0048761
0.00488229
0.00488354
0.00488458
0.00488568
0.00488673
0.00488786
0.00488955
0.00489127
0.00489237
0.00489299
0.00489393
0.00489467
0.00489441
0.00489371
0.00489396
0.00489417
0.00489386
0.00489331
0.0048929
0.00489211
0.00489134
0.0048904
0.00488858
0.00488786
0.00488804
0.00488815
0.00488734
0.00488629
0.00488685
0.00488521
0.00488564
0.00488998
0.0048961
0.00490103
0.00490269
0.00491167
0.00492952
0.00496154
0.00500331
0.00505522
0.00511475
0.00519915
0.00531494
0.00557423
0.00587078
0.00644342
0.00726385
0.00842232
0.00451311
0.00490261
0.00490604
0.00490648
0.00490708
0.00490778
0.00490831
0.00490893
0.00490954
0.00490971
0.00490953
0.0049092
0.00490875
0.00490783
0.00490675
0.0049061
0.00490575
0.00490492
0.00490341
0.00490254
0.00490153
0.00490062
0.00489932
0.00489841
0.00489719
0.00489634
0.0048954
0.00489449
0.00489478
0.00489425
0.0048934
0.00489217
0.0048925
0.00489475
0.00489485
0.0048977
0.00490167
0.00491031
0.00492858
0.004946
0.00496807
0.00500144
0.00504735
0.00514293
0.00526106
0.00551429
0.00585268
0.00627734
0.00693377
0.00795332
0.0356726
0.0255534
0.0184521
0.0141327
0.0114666
0.00990557
0.00867617
0.00779846
0.0071237
0.00653537
0.00613509
0.00585155
0.00561099
0.00536953
0.00521584
0.00510496
0.00501557
0.00495445
0.00490756
0.00487018
0.00484418
0.00482439
0.00481112
0.00480088
0.00478958
0.00477959
0.00477091
0.00476298
0.00475441
0.00474673
0.00473972
0.00473262
0.00472505
0.00471653
0.00470853
0.00470139
0.00469519
0.00468701
0.00467661
0.00466607
0.00465608
0.00464718
0.00463851
0.00462976
0.00461965
0.00460764
0.0045934
0.00457855
0.00456657
0.00457661
0.0471999
0.0320944
0.0234792
0.0173521
0.0135808
0.0114958
0.0100072
0.00888172
0.00802036
0.00731148
0.00671825
0.00619997
0.00585849
0.00563407
0.00547145
0.0053083
0.00514739
0.00503577
0.00496206
0.00491218
0.00487871
0.00485107
0.00483019
0.00481524
0.00480269
0.00479044
0.00477911
0.00477024
0.00476125
0.00475284
0.00474462
0.00473795
0.00473022
0.00472292
0.00471436
0.00470644
0.00469871
0.00469281
0.00468538
0.00467591
0.00466572
0.00465487
0.00464608
0.00463643
0.00462835
0.00462051
0.00460727
0.00459682
0.00457357
0.00457064
0.073839
0.0465732
0.0311065
0.022049
0.0171278
0.0138536
0.0116031
0.0101801
0.00913887
0.00812933
0.00727182
0.00674826
0.00641357
0.00611583
0.00579367
0.005543
0.00536023
0.00521293
0.00508859
0.00499489
0.00493432
0.00489232
0.00486188
0.00483945
0.00482252
0.00480895
0.00479606
0.00478434
0.00477336
0.00476328
0.00475407
0.00474569
0.00473855
0.00473021
0.00472309
0.00471398
0.00470607
0.00469734
0.00469117
0.00468289
0.00467474
0.0046652
0.00465503
0.00464625
0.0046343
0.00462879
0.00461694
0.00461035
0.00459615
0.0045771
0.101271
0.0673943
0.0446565
0.0303845
0.022083
0.016898
0.013985
0.0118587
0.0101681
0.00894819
0.00831747
0.00781655
0.007135
0.0065423
0.00616381
0.00595797
0.00574744
0.00549902
0.005289
0.005147
0.00504716
0.00497575
0.00492315
0.00488477
0.0048568
0.00483601
0.00481868
0.00480312
0.00478929
0.00477648
0.00476553
0.00475467
0.00474628
0.00473762
0.00473029
0.00472254
0.00471462
0.00470667
0.00469741
0.00469168
0.00468197
0.00467581
0.00466511
0.00465775
0.00464604
0.00463654
0.00462744
0.00461687
0.00460993
0.00459277
0.168711
0.12621
0.0865188
0.054831
0.034912
0.023848
0.017814
0.0141976
0.0120995
0.0109483
0.0100055
0.00877212
0.00786109
0.00738278
0.00696946
0.00651803
0.00616838
0.00589777
0.00570165
0.00549835
0.00529764
0.0051563
0.00505594
0.00498332
0.00493083
0.00489285
0.00486431
0.00484062
0.00482077
0.00480292
0.00478715
0.00477256
0.00476
0.00474943
0.00473904
0.00473137
0.00472187
0.00471554
0.00470549
0.00469929
0.00469009
0.0046832
0.00467493
0.00466673
0.00465898
0.00464763
0.00464037
0.00462742
0.00462108
0.004607
0.439978
0.395871
0.297961
0.183623
0.101436
0.0527077
0.0297575
0.0198266
0.0153894
0.0132453
0.0113453
0.0100952
0.00957075
0.00876074
0.00792886
0.00745566
0.00711454
0.006721
0.00634075
0.00604335
0.00578577
0.00557057
0.00539462
0.0052361
0.00511767
0.00503341
0.00497274
0.00492783
0.00489302
0.00486374
0.0048372
0.0048139
0.00479147
0.00477463
0.00475851
0.00474718
0.00473511
0.00472633
0.00471588
0.00470724
0.00469898
0.0046895
0.00468295
0.00467275
0.00466726
0.00465635
0.00465071
0.00463881
0.00463233
0.00462001
0.64731
0.61766
0.582946
0.523558
0.389813
0.193407
0.0885103
0.0420996
0.0244483
0.0172252
0.0140934
0.0129247
0.0113695
0.010181
0.00971439
0.00917851
0.00843198
0.00783557
0.00745204
0.00724746
0.00718067
0.00707726
0.00676754
0.00630864
0.00588222
0.00554234
0.00532277
0.00519045
0.00510337
0.0050405
0.00498287
0.00493072
0.00488465
0.00485029
0.00481895
0.00479226
0.00476994
0.00475203
0.00473838
0.00472459
0.00471543
0.00470301
0.00469555
0.00468358
0.0046769
0.0046653
0.00465902
0.00464748
0.00464025
0.00462866
0.613177
0.55078
0.535885
0.547866
0.537287
0.480708
0.301766
0.130761
0.0576221
0.0295017
0.0197119
0.0156364
0.0134488
0.0127107
0.0118201
0.010796
0.0103296
0.0103856
0.01111
0.01354
0.0179287
0.0205596
0.0208957
0.0180337
0.0141163
0.0103455
0.00785213
0.00652809
0.00590397
0.00560022
0.0054194
0.00530548
0.00523387
0.00518867
0.00515203
0.00509123
0.00500508
0.00491316
0.00484635
0.00479741
0.0047703
0.00474648
0.00473284
0.00471654
0.00470508
0.00468876
0.00467853
0.00466375
0.00465554
0.0046417
0.466093
0.382624
0.349284
0.360988
0.456155
0.496032
0.462449
0.335544
0.154242
0.0670942
0.0337205
0.0215879
0.0180119
0.0158216
0.014134
0.0137988
0.0146054
0.0185143
0.0301767
0.0576298
0.0826203
0.0947158
0.0964905
0.0938945
0.083943
0.054282
0.0305228
0.0173115
0.0106874
0.00778362
0.00676508
0.00665904
0.00696195
0.00793291
0.00933473
0.00986941
0.00920289
0.00785115
0.00657844
0.00570914
0.00525928
0.00508946
0.00505512
0.00505828
0.00507492
0.00502096
0.00493086
0.00481627
0.00476436
0.00471018
0.381038
0.289512
0.259461
0.265627
0.331688
0.462862
0.474169
0.438185
0.308961
0.154659
0.0684571
0.0356786
0.0243912
0.019344
0.0183343
0.0200432
0.0299008
0.0625348
0.108529
0.133481
0.138021
0.134946
0.129118
0.128877
0.128608
0.123837
0.108732
0.0684575
0.0346122
0.0175266
0.0121583
0.012486
0.0182139
0.0352404
0.0458873
0.0480244
0.0470819
0.041764
0.0271278
0.0162401
0.01076
0.00916609
0.00929877
0.0101185
0.0113667
0.0116472
0.010469
0.00807915
0.00692462
0.006137
0.371429
0.259253
0.220686
0.226688
0.283549
0.409793
0.460483
0.448174
0.383415
0.241332
0.133414
0.0684726
0.0363227
0.0262331
0.0269209
0.0418747
0.100943
0.154738
0.167717
0.158291
0.1219
0.099153
0.0948914
0.100231
0.120089
0.128222
0.126987
0.118834
0.0910011
0.0477689
0.0314318
0.0345653
0.059865
0.0789186
0.0820829
0.0816217
0.0805147
0.0778087
0.0709527
0.0512701
0.0338694
0.0302641
0.0326835
0.0406339
0.0437738
0.0436038
0.0415348
0.032366
0.022961
0.0191727
0.373073
0.252554
0.198028
0.202358
0.261428
0.371156
0.435795
0.435173
0.388863
0.271723
0.170601
0.0975838
0.053192
0.0405298
0.048724
0.110007
0.18172
0.201571
0.193949
0.14841
0.0979429
0.0778734
0.0785322
0.0993493
0.130525
0.139531
0.137341
0.124673
0.0859724
0.0608225
0.0605089
0.0794452
0.0920907
0.0887738
0.0779182
0.0753889
0.0769842
0.0777665
0.0743236
0.0618232
0.0578916
0.0606311
0.0636529
0.0629831
0.0612134
0.0577807
0.0509377
0.0459032
0.0447543
0.0449825
0.374542
0.25495
0.17376
0.16988
0.222365
0.338624
0.410656
0.417403
0.376273
0.275091
0.183876
0.108911
0.0700603
0.0661951
0.088606
0.1664
0.212216
0.219067
0.209541
0.167468
0.102958
0.0698701
0.068205
0.0916395
0.129927
0.140264
0.134978
0.106076
0.0773023
0.0721532
0.0814294
0.0996978
0.10086
0.088129
0.0726787
0.0715902
0.0778774
0.0801796
0.0736965
0.0660857
0.0658842
0.066806
0.0643805
0.0588722
0.057658
0.0569294
0.0540016
0.0516144
0.0500176
0.047847
0.351216
0.249017
0.15375
0.130506
0.159449
0.271696
0.361275
0.381262
0.352563
0.270195
0.186484
0.117259
0.0845028
0.0821584
0.102658
0.168782
0.209862
0.217471
0.212124
0.189045
0.126547
0.0689072
0.0474774
0.0509491
0.0889427
0.122425
0.124084
0.105076
0.0827848
0.0795689
0.0859531
0.0983453
0.0994443
0.0939448
0.0727202
0.0622771
0.0649815
0.0745439
0.0747955
0.0707324
0.0675275
0.0663224
0.0631884
0.05467
0.0513595
0.0521937
0.0536896
0.0533317
0.0520084
0.0470334
0.297693
0.198365
0.12581
0.0849627
0.0936247
0.176102
0.288989
0.333446
0.328721
0.279463
0.202517
0.139123
0.107715
0.102979
0.111809
0.155594
0.199534
0.208503
0.204952
0.187052
0.132214
0.0678851
0.0313351
0.0240227
0.0318361
0.0711789
0.102222
0.105945
0.100167
0.0938205
0.0940679
0.0955927
0.0941652
0.0885053
0.0695144
0.0416557
0.033941
0.0378036
0.0535692
0.061806
0.0629001
0.0619493
0.0584625
0.0458168
0.0299725
0.0248616
0.0250823
0.0277679
0.0294661
0.028779
0.243122
0.134458
0.0914925
0.0630443
0.05893
0.0796909
0.170668
0.261768
0.292334
0.288802
0.253308
0.193991
0.15421
0.139793
0.141323
0.166068
0.198831
0.198409
0.182491
0.124579
0.0593673
0.0273344
0.014996
0.0122315
0.0131833
0.0208249
0.0483859
0.0769082
0.0895106
0.0918596
0.0904355
0.0857193
0.0724944
0.0440106
0.0239925
0.0139246
0.0111788
0.0116121
0.01498
0.0205114
0.0220669
0.0217237
0.0179384
0.012324
0.00887272
0.00748269
0.00728538
0.00741099
0.00765429
0.00725532
0.178653
0.105175
0.0705588
0.0534278
0.0438279
0.0450359
0.0619869
0.114674
0.17994
0.218264
0.229277
0.22768
0.219219
0.21224
0.211723
0.209285
0.197511
0.160636
0.0862177
0.0415425
0.020586
0.0123822
0.00936708
0.00837282
0.00831547
0.00893214
0.0116952
0.0187461
0.02439
0.0259442
0.0251747
0.0198186
0.0140013
0.00978609
0.00727356
0.006052
0.00565516
0.0056411
0.00574939
0.00589539
0.00599789
0.00582698
0.00547955
0.00515442
0.00495373
0.00484646
0.00481854
0.00479537
0.00480101
0.00473705
0.123852
0.0836721
0.0587277
0.0467957
0.0372406
0.0326601
0.0333023
0.0397771
0.0565839
0.0867242
0.12165
0.146216
0.15582
0.155166
0.148085
0.120955
0.0696227
0.0379148
0.0204258
0.0123604
0.00899396
0.00773849
0.00726461
0.00686703
0.00656854
0.00645666
0.00648991
0.00665464
0.00685341
0.00689453
0.00653183
0.00598489
0.00551227
0.00520782
0.0050402
0.00494888
0.00489945
0.00486166
0.00483699
0.00481167
0.00478964
0.00475975
0.0047374
0.00471472
0.00470131
0.00468588
0.00467747
0.00466447
0.0046565
0.00464244
0.0994354
0.0635614
0.0447832
0.0359842
0.0317457
0.0270712
0.0240978
0.0233389
0.0239131
0.0262225
0.0312992
0.0367699
0.0387543
0.0359334
0.0293738
0.0212006
0.0142516
0.0101901
0.0081742
0.00727041
0.00675468
0.00636891
0.00618959
0.00605645
0.0058173
0.00557243
0.00539733
0.00526356
0.005155
0.00506249
0.0049782
0.0049124
0.00486372
0.00483176
0.00480732
0.00478781
0.00477028
0.00475455
0.00474172
0.00472701
0.00471675
0.00470317
0.00469511
0.00468299
0.00467656
0.00466509
0.00465892
0.00464737
0.00464021
0.00462864
0.075044
0.0492972
0.0366474
0.0286105
0.0243731
0.022275
0.0199989
0.0177527
0.0160942
0.0147987
0.0137522
0.012708
0.0115483
0.0102697
0.00898099
0.00790359
0.00719298
0.00672409
0.00635025
0.00612344
0.00597966
0.00578194
0.0055613
0.00538591
0.00524105
0.00511695
0.00502131
0.00495049
0.00489693
0.00485672
0.00482606
0.00480405
0.0047856
0.0047721
0.00475811
0.00474764
0.00473587
0.00472676
0.00471633
0.00470737
0.00469913
0.00468943
0.00468308
0.00467287
0.00466733
0.00465631
0.00465064
0.00463866
0.00463225
0.00461987
0.0580847
0.0425426
0.0315125
0.0252115
0.0210547
0.0180039
0.0160194
0.0146006
0.0130547
0.0114517
0.0101524
0.00909125
0.0081641
0.00745334
0.00691795
0.00645468
0.00611534
0.00590788
0.00572825
0.00549777
0.00533907
0.00523207
0.00513584
0.0050515
0.00498147
0.00492377
0.00487732
0.00484226
0.00481687
0.00479778
0.00478298
0.00477039
0.00475932
0.00474962
0.00473942
0.00473161
0.00472172
0.0047153
0.00470533
0.00469921
0.00469006
0.00468308
0.00467488
0.00466639
0.00465889
0.00464776
0.00464059
0.00462751
0.00462108
0.00460697
0.0451045
0.0332169
0.0268394
0.0217023
0.018509
0.0161058
0.0136966
0.0117596
0.0104698
0.00939241
0.00840838
0.00763928
0.0069787
0.00648113
0.00613684
0.00584899
0.00558013
0.00539361
0.00526287
0.00516175
0.00507931
0.00501127
0.00495748
0.00491328
0.00487526
0.004844
0.00481916
0.00480011
0.00478586
0.00477404
0.00476459
0.00475507
0.00474695
0.00473819
0.00473039
0.00472263
0.0047146
0.00470714
0.0046979
0.0046918
0.0046819
0.00467547
0.00466495
0.00465765
0.00464614
0.00463643
0.00462707
0.00461674
0.00460988
0.00459364
0.0395877
0.0283146
0.0221766
0.0176584
0.0146837
0.0128796
0.0117137
0.0104075
0.00898288
0.00787725
0.00707285
0.00651565
0.00611304
0.00577594
0.00554098
0.00537158
0.00524698
0.00516018
0.00508099
0.00501348
0.00495591
0.00491395
0.00488114
0.00485203
0.00482844
0.00480916
0.00479305
0.00478057
0.00477104
0.00476239
0.00475364
0.00474484
0.00473744
0.00472903
0.00472235
0.00471399
0.00470633
0.00469744
0.00469107
0.00468289
0.00467476
0.00466565
0.00465557
0.00464653
0.00463433
0.00462879
0.00461698
0.0046104
0.00459589
0.00457767
0.0328795
0.0246199
0.0190688
0.0154917
0.0130945
0.0110866
0.00966518
0.00867146
0.00785985
0.00711461
0.00648701
0.00599041
0.00565957
0.00543302
0.0052821
0.00518286
0.00510188
0.00502499
0.00496653
0.0049259
0.00489144
0.00486573
0.00484317
0.00482144
0.00480463
0.00479053
0.00477877
0.00476981
0.00476125
0.00475249
0.00474418
0.00473759
0.00472997
0.00472304
0.00471455
0.00470624
0.0046986
0.00469246
0.00468519
0.00467592
0.00466593
0.0046549
0.00464596
0.0046364
0.00462842
0.00462065
0.00460733
0.00459688
0.00457364
0.00457066
0.0295589
0.0210878
0.0172538
0.0142164
0.0119989
0.0102017
0.00887541
0.00766364
0.00685998
0.00629208
0.00589685
0.00560056
0.0053971
0.0052524
0.00513333
0.00504934
0.00499395
0.00495023
0.00491245
0.00487856
0.00485334
0.00483471
0.0048166
0.00480101
0.00478998
0.00477914
0.00477023
0.00476262
0.00475452
0.0047466
0.00473963
0.00473273
0.00472519
0.00471661
0.00470867
0.00470136
0.00469522
0.00468725
0.00467678
0.00466618
0.00465614
0.0046472
0.00463849
0.00462975
0.00461953
0.00460766
0.00459344
0.00457863
0.00456662
0.00457663
0.0262933
0.018675
0.014524