/*--------------------------------*- C++ -*----------------------------------*\
| =========                 |                                                 |
| \\      /  F ield         | OpenFOAM: The Open Source CFD Toolbox           |
|  \\    /   O peration     | Version:  2.3.1                                 |
|   \\  /    A nd           | Web:      www.OpenFOAM.org                      |
|    \\/     M anipulation  |                                                 |
\*---------------------------------------------------------------------------*/
FoamFile
{
    version     2.0;
    format      ascii;
    class       volScalarField;
    location    "1000";
    object      p;
}
// * * * * * * * * * * * * * * * * * * * * * * * * * * * * * * * * * * * * * //

dimensions      [0 2 -2 0 0 0 0];

internalField   nonuniform List<scalar> 
19300
(
41.8335
41.841
41.8517
41.8666
41.8861
41.9061
41.9264
41.9467
41.9625
41.9804
41.9992
42.02
42.0434
42.0667
42.0931
42.1288
42.171
42.2267
42.2815
42.347
42.4129
42.4597
42.5227
42.5847
42.685
42.789
42.8688
42.9733
43.0569
43.1544
43.2589
43.3486
43.5028
43.622
43.7781
43.9648
44.1264
44.3265
44.5222
44.7484
44.9682
45.2146
45.4582
45.7279
46.012
46.2771
46.5934
46.8691
47.1929
47.534
47.8701
48.1681
48.5211
48.9192
49.2287
49.6851
50.1217
50.6021
51.0614
51.5572
52.0426
52.5698
53.1441
53.6972
54.2982
54.9928
55.5815
56.2345
56.9585
57.6528
58.4095
59.1672
60.0111
60.902
61.6569
62.7111
63.6774
64.6565
65.801
66.9678
68.1779
69.4717
70.806
72.1636
73.6068
75.0877
76.7051
78.3697
80.1467
82.0736
84.2751
86.1749
88.4064
90.2603
92.57
94.5356
96.6359
98.8761
100.351
101.671
41.8896
41.9062
41.9226
41.9456
41.9788
42.0151
42.0504
42.0875
42.1284
42.1731
42.2125
42.2546
42.3024
42.3559
42.4132
42.4652
42.5183
42.5722
42.6258
42.6868
42.7485
42.8131
42.8979
42.9821
43.079
43.1807
43.2684
43.3936
43.5043
43.6334
43.7845
43.916
44.0968
44.2661
44.4584
44.6597
44.8496
45.079
45.2962
45.5219
45.7575
46.0118
46.2688
46.5776
46.8576
47.1603
47.5292
47.8408
48.2196
48.584
48.9832
49.3751
49.7491
50.2106
50.595
51.1118
51.5535
52.1012
52.6214
53.1937
53.8305
54.4145
55.1425
55.805
56.5478
57.3457
58.0959
58.9456
59.7444
60.6361
61.5566
62.5151
63.5324
64.6096
65.729
66.9432
68.2018
69.598
71.0391
72.4829
74.122
75.8032
77.5493
79.372
81.467
83.469
85.8662
88.275
90.9867
93.8201
96.8067
99.9025
103.636
107.016
110.923
115.198
119.594
124.636
129.88
134.964
41.995
42.0188
42.0401
42.0755
42.1334
42.196
42.2469
42.2977
42.3622
42.4321
42.4889
42.5404
42.6031
42.6746
42.7486
42.8164
42.8809
42.9498
43.0135
43.0726
43.1421
43.2091
43.2952
43.3938
43.5148
43.6611
43.7794
43.9252
44.0715
44.213
44.3962
44.5584
44.7579
44.9551
45.1672
45.4083
45.6256
45.8875
46.1434
46.4112
46.6715
46.9583
47.2463
47.5748
47.9289
48.2656
48.6736
49.0238
49.467
49.8991
50.3118
50.8088
51.1954
51.7252
52.2133
52.8066
53.3637
53.9129
54.5674
55.1821
55.9548
56.6571
57.5222
58.3263
59.2143
60.129
60.9664
62.0289
63.0347
64.0992
65.2304
66.383
67.6537
68.9388
70.3161
71.8338
73.3891
75.0353
76.8665
78.6577
80.6834
82.7641
84.999
87.3886
89.9776
92.7176
95.7755
98.9899
102.466
106.259
110.368
114.678
119.514
124.609
130.069
136.353
143.152
149.988
158.985
168.072
42.1582
42.1932
42.2254
42.2725
42.3476
42.4264
42.4832
42.5346
42.6105
42.6882
42.7475
42.8012
42.878
42.9759
43.065
43.1417
43.2242
43.3156
43.4037
43.4739
43.555
43.6621
43.7752
43.8902
44.0194
44.1779
44.3344
44.5092
44.6821
44.837
45.0373
45.2324
45.456
45.6773
45.9115
46.1838
46.4358
46.7337
47.0293
47.3502
47.6595
47.9953
48.3306
48.7069
49.125
49.5106
49.9788
50.3954
50.8742
51.3824
51.8632
52.4323
52.8815
53.4941
54.0639
54.6664
55.3578
55.9082
56.673
57.4208
58.2857
59.1263
60.1142
61.0517
62.0438
63.1356
64.1346
65.3845
66.5629
67.8444
69.2515
70.5373
72.0887
73.6464
75.3132
77.1085
78.9679
80.9593
83.1128
85.337
87.7635
90.3635
93.0383
95.9747
99.1787
102.627
106.313
110.381
114.654
119.361
124.465
129.918
135.925
142.324
149.694
157.23
166.357
175.834
187.488
201.28
42.3814
42.4237
42.4646
42.5205
42.6064
42.696
42.7518
42.7941
42.8731
42.9619
43.0296
43.0941
43.1798
43.2885
43.3868
43.4724
43.5718
43.6895
43.8
43.8886
43.9813
44.0986
44.2392
44.3821
44.5318
44.7053
44.8838
45.0902
45.2971
45.4885
45.7193
45.9529
46.2118
46.4662
46.7192
47.0283
47.3257
47.6631
47.9971
48.3621
48.7197
49.1025
49.5281
49.9228
50.4018
50.8473
51.3744
51.8963
52.3578
52.9514
53.5341
54.1607
54.7229
55.3978
56.0662
56.674
57.4972
58.2215
59.0274
59.94
60.9192
61.8545
62.9431
64.0213
65.1439
66.3646
67.5252
68.9849
70.4247
71.8091
73.4467
75.1194
76.8231
78.7351
80.6807
82.7671
84.9792
87.3312
89.8192
92.5045
95.3677
98.4003
101.506
105.162
109.022
112.949
117.338
122.246
127.384
132.897
139.047
145.446
152.775
160.448
169.217
178.707
189.169
201.863
215.458
232.918
42.6458
42.6933
42.7428
42.8024
42.8863
42.9772
43.0324
43.0718
43.1481
43.241
43.3139
43.384
43.4771
43.5926
43.7058
43.8085
43.9189
44.0463
44.1794
44.2986
44.4168
44.5531
44.7077
44.8715
45.0488
45.2318
45.4491
45.6912
45.9253
46.1486
46.4021
46.6706
46.9447
47.2418
47.5301
47.8715
48.2191
48.6054
48.9983
49.407
49.8283
50.252
50.7445
51.2217
51.7485
52.2619
52.8382
53.4287
53.9848
54.6707
55.2937
55.9836
56.6778
57.3932
58.1875
58.8815
59.7726
60.6928
61.6163
62.6176
63.7002
64.7619
65.9677
67.2089
68.4539
69.8412
71.1782
72.7611
74.3977
76.1101
77.9105
79.8033
81.8609
83.989
86.2621
88.7233
91.2304
93.9322
96.8751
99.9578
103.285
106.728
110.464
114.605
118.946
123.583
128.706
134.268
140.214
146.59
153.767
161.167
169.379
178.734
188.332
199.795
211.647
225.761
241.812
261.689
42.9236
42.9713
43.0242
43.0822
43.1626
43.2545
43.3096
43.3441
43.4118
43.5092
43.5891
43.6677
43.7648
43.8824
44.0069
44.1242
44.2506
44.3909
44.5387
44.6847
44.831
44.9878
45.1687
45.3565
45.5662
45.7735
46.0077
46.2703
46.527
46.8071
47.0861
47.3875
47.6974
48.0353
48.3541
48.7337
49.1265
49.5453
50.0194
50.468
50.9566
51.4489
51.9804
52.5243
53.1132
53.6983
54.3119
54.9842
55.6225
56.3704
57.0716
57.8359
58.6768
59.3964
60.2699
61.2499
62.2186
63.2253
64.2736
65.3789
66.6022
67.8068
69.1402
70.5433
71.8957
73.4314
75.0189
76.7719
78.5918
80.4566
82.5378
84.6511
86.9557
89.408
91.9494
94.6926
97.6803
100.696
103.997
107.527
111.327
115.239
119.488
124.21
129.007
134.382
140.107
146.294
153.152
160.264
168.218
176.897
185.959
196.534
207.345
219.715
233.612
248.512
266.536
288.072
43.1921
43.2339
43.2752
43.3233
43.4044
43.4942
43.5395
43.5689
43.639
43.7452
43.8356
43.9195
44.0234
44.1492
44.2802
44.4118
44.5522
44.706
44.8703
45.0378
45.2092
45.3881
45.5911
45.8048
46.042
46.2823
46.5441
46.8247
47.117
47.4429
47.7437
48.0922
48.4341
48.8029
49.1936
49.5823
50.0285
50.4977
50.9894
51.493
52.044
52.6148
53.1942
53.7942
54.4503
55.1114
55.7861
56.5241
57.2352
58.0738
58.885
59.695
60.6537
61.5148
62.4921
63.5644
64.6359
65.757
66.9269
68.1536
69.511
70.8625
72.3433
73.9212
75.4105
77.1089
78.9636
80.8482
82.8232
84.9143
87.1841
89.5902
92.0883
94.7691
97.707
100.733
103.982
107.459
111.107
115.166
119.194
123.766
128.505
133.648
139.058
145.056
151.493
158.155
165.825
173.753
182.425
192.049
202.139
213.399
225.818
238.678
254.064
270.05
288.799
311.173
43.4117
43.4363
43.4529
43.4913
43.5699
43.6543
43.6957
43.7253
43.8066
43.9198
44.0139
44.1066
44.2213
44.3558
44.4956
44.6376
44.7887
44.9536
45.1351
45.322
45.5224
45.7224
45.9542
46.2058
46.443
46.7203
47.0101
47.3269
47.6665
48.0201
48.3681
48.7357
49.1338
49.5368
49.9616
50.4094
50.8897
51.3895
51.9303
52.5001
53.0803
53.6889
54.3261
54.9867
55.6942
56.4148
57.1525
57.9609
58.7652
59.667
60.5849
61.4384
62.5061
63.5192
64.6171
65.7347
66.9463
68.2353
69.4586
70.8787
72.3618
73.8228
75.465
77.1668
78.8343
80.7777
82.7453
84.7856
87.0069
89.2886
91.7642
94.3485
97.0928
100.124
103.249
106.627
110.089
114.06
117.921
122.355
126.971
131.807
137.061
142.656
148.775
155.074
162.228
169.566
177.774
186.354
195.92
206.095
217.319
229.157
242.714
256.606
272.607
289.9
308.789
331.401
43.5232
43.5292
43.5237
43.5531
43.6267
43.7059
43.7472
43.7797
43.8701
43.9881
44.0878
44.1911
44.3172
44.4597
44.6056
44.7556
44.9179
45.0963
45.2982
45.5005
45.7133
45.9481
46.2044
46.4844
46.7619
47.0727
47.3998
47.7368
48.0953
48.4684
48.8534
49.2589
49.693
50.1511
50.6195
51.1082
51.6363
52.1856
52.7505
53.3633
54.003
54.6492
55.3279
56.0488
56.8103
57.5772
58.3911
59.2437
60.1349
61.0786
62.0819
63.0579
64.1816
65.2676
66.4591
67.7189
68.9946
70.438
71.7978
73.344
74.9207
76.5095
78.3061
80.1249
81.9632
84.0764
86.1785
88.429
90.8328
93.3138
95.973
98.8375
101.822
105.082
108.392
112.065
115.825
119.998
124.372
128.996
134.147
139.174
145.015
150.979
157.56
164.359
172.012
179.853
188.61
197.948
208.038
218.974
230.869
243.682
257.573
272.948
289.165
307.823
327.504
349.693
43.4743
43.4662
43.4487
43.4694
43.5371
43.6116
43.6551
43.6951
43.7941
43.9132
44.0193
44.1298
44.2625
44.4127
44.5677
44.7297
44.9056
45.0962
45.3146
45.532
45.7577
46.0309
46.3177
46.6172
46.9286
47.2554
47.6047
47.9644
48.3527
48.7496
49.1613
49.6107
50.0737
50.5637
51.0783
51.6136
52.1824
52.7656
53.3782
54.0318
54.7037
55.3834
56.1226
56.8805
57.7
58.5111
59.3777
60.3015
61.2422
62.2409
63.3079
64.391
65.5327
66.7895
67.9797
69.3304
70.7768
72.2366
73.7717
75.3672
77.0283
78.8503
80.6753
82.6265
84.688
86.8594
89.1194
91.5676
94.0919
96.7638
99.6369
102.684
105.798
109.356
112.899
116.698
121.002
125.061
129.853
134.83
140.116
145.68
151.825
158.029
165.004
172.405
180.199
188.776
197.905
207.847
218.091
230.16
242.329
255.809
270.439
286.577
303.115
322.423
342.497
364.176
43.2235
43.2071
43.1843
43.1994
43.2612
43.3321
43.3839
43.4351
43.534
43.6514
43.7689
43.8856
44.025
44.1848
44.3488
44.5224
44.7089
44.9083
45.1439
45.3842
45.6364
45.9271
46.2257
46.5481
46.8852
47.2281
47.591
47.9694
48.3761
48.7931
49.2349
49.7156
50.2092
50.7308
51.2691
51.8394
52.4486
53.0594
53.7264
54.3957
55.0953
55.8211
56.5992
57.3869
58.2323
59.1345
60.0108
60.9832
62.0031
63.0833
64.1637
65.3205
66.5524
67.8603
69.179
70.5647
72.05
73.5908
75.1911
76.8682
78.6437
80.521
82.4682
84.5204
86.68
88.9986
91.4098
93.9678
96.624
99.5178
102.464
105.683
109.166
112.587
116.55
120.649
124.908
129.368
134.332
139.462
145.021
150.818
157.093
163.882
170.848
178.831
186.744
195.909
205.243
215.52
226.828
238.338
251.664
265.384
280.259
297.078
314.347
333.763
354.735
376.327
42.7331
42.7132
42.6925
42.7075
42.7648
42.834
42.8968
42.9594
43.0531
43.1748
43.3066
43.4311
43.5776
43.7454
43.918
44.1002
44.298
44.5094
44.7517
45.012
45.2848
45.5914
45.9041
46.2371
46.5848
46.9334
47.3082
47.7049
48.131
48.5715
49.0206
49.5132
50.0325
50.5842
51.1471
51.7429
52.3926
53.0122
53.691
54.3869
55.1045
55.8708
56.6375
57.4874
58.3928
59.324
60.2506
61.2556
62.3191
63.4065
64.5598
65.7871
67.0338
68.3408
69.7308
71.174
72.6686
74.2502
75.9249
77.6712
79.5059
81.4722
83.4964
85.6106
87.9056
90.265
92.7444
95.521
98.1816
101.12
104.507
107.644
111.097
114.969
118.923
122.975
127.535
132.217
137.257
142.545
148.261
154.339
160.712
167.862
174.891
183.091
191.494
200.492
210.598
220.621
232.543
244.375
257.663
271.931
286.99
303.63
321.76
340.564
362.036
383.573
41.9694
41.9572
41.9491
41.9715
42.0274
42.0967
42.169
42.2457
42.3398
42.4675
42.6096
42.7438
42.8972
43.0703
43.2526
43.4428
43.6528
43.8746
44.1174
44.3874
44.6668
44.9795
45.299
45.6385
45.9861
46.3414
46.7198
47.1298
47.5701
48.0129
48.4824
48.9889
49.5289
50.0853
50.6921
51.2738
51.899
52.5528
53.2265
53.9384
54.6598
55.4611
56.2776
57.1384
58.0286
58.9876
59.9343
60.9767
62.0361
63.1426
64.3535
65.5538
66.8026
68.1561
69.5385
70.9899
72.5508
74.1783
75.8418
77.6162
79.5766
81.5157
83.5641
85.8295
88.0467
90.4409
93.2413
95.8269
98.6888
101.737
104.937
108.268
111.866
115.645
119.675
123.973
128.478
133.274
138.411
143.936
149.447
156.009
162.3
169.46
177.066
184.945
193.873
202.672
212.957
223.551
234.993
247.627
260.572
275.115
290.381
307.088
324.335
343.534
364.318
386.478
40.9254
40.9299
40.9451
40.9827
41.0426
41.1154
41.1999
41.2915
41.3891
41.522
41.6696
41.8145
41.9728
42.1451
42.3355
42.5309
42.7444
42.9773
43.2175
43.4929
43.7707
44.0708
44.3925
44.7238
45.0738
45.4465
45.8306
46.2375
46.6744
47.1182
47.6129
48.112
48.6434
49.1915
49.7791
50.3676
50.9845
51.658
52.3348
53.0446
53.794
54.5715
55.367
56.2401
57.1342
58.0617
59.0231
60.0562
61.1152
62.2417
63.4007
64.615
65.8553
67.1892
68.6084
70.0443
71.6143
73.2297
74.9355
76.7369
78.6003
80.5831
82.7411
84.8375
87.2329
89.6632
92.2055
94.9911
97.7433
100.798
104.131
107.286
110.944
114.927
118.893
123.077
127.669
132.668
137.598
143.218
148.939
155.115
161.894
168.768
176.505
184.464
193.128
202.678
212.105
223.115
234.756
247.096
260.339
274.75
290.092
306.856
324.496
344.202
364.728
386.553
39.6101
39.6373
39.6878
39.7498
39.8181
39.8994
39.9972
40.1049
40.2095
40.3452
40.4954
40.6493
40.8119
40.9854
41.1724
41.3755
41.5899
41.8163
42.0605
42.3235
42.6114
42.9048
43.2284
43.5397
43.881
44.249
44.6168
45.0225
45.4437
45.8896
46.3601
46.8402
47.3599
47.9326
48.4772
49.055
49.674
50.3145
50.9776
51.673
52.3982
53.1454
53.9635
54.7832
55.6648
56.5575
57.5402
58.4913
59.5465
60.6548
61.7805
62.9762
64.1927
65.499
66.8662
68.3268
69.7912
71.4164
73.0632
74.8434
76.6506
78.5884
80.7535
82.8704
85.1574
87.5876
90.0014
92.8085
95.5412
98.5386
101.752
104.939
108.534
112.421
116.369
120.53
125.144
129.902
134.878
140.408
146.1
152.093
159.017
165.572
173.334
181.381
189.793
199.213
208.836
219.554
231.132
243.422
256.584
270.605
286.469
302.401
320.687
339.596
360.197
381.587
38.0674
38.1221
38.2141
38.3072
38.3898
38.4836
38.5972
38.7211
38.8354
38.9689
39.1216
39.2871
39.4508
39.6234
39.804
40.0072
40.2179
40.4241
40.675
40.9356
41.2111
41.5019
41.7977
42.1003
42.4305
42.7692
43.1312
43.5143
43.9031
44.34
44.7853
45.2666
45.76
46.2798
46.8216
47.3641
47.938
48.5551
49.1902
49.8474
50.546
51.2688
52.0302
52.8291
53.6608
54.5147
55.4471
56.3752
57.3877
58.4033
59.5331
60.6468
61.8247
63.1097
64.4011
65.7815
67.2069
68.7451
70.3077
72.0473
73.7667
75.6941
77.6781
79.7459
81.9777
84.2874
86.73
89.2854
92.0358
94.946
97.9101
101.255
104.671
108.325
112.179
116.252
120.68
125.269
130.289
135.498
141.095
147.097
153.539
160.241
167.677
175.474
183.862
193.195
202.205
212.797
224.649
236.403
249.232
263.603
278.568
294.621
312.449
330.593
351.036
372.685
36.3439
36.4302
36.5683
36.6967
36.7967
36.9048
37.034
37.1719
37.2964
37.4271
37.5847
37.7595
37.9246
38.0901
38.2638
38.4626
38.6631
38.8555
39.0929
39.3419
39.5983
39.8819
40.1567
40.4443
40.7572
41.0755
41.4154
41.7539
42.118
42.5118
42.9306
43.3817
43.8367
44.3207
44.8246
45.3488
45.8943
46.4549
47.0399
47.6623
48.3186
48.9894
49.6908
50.4399
51.2019
52.0212
52.8659
53.7631
54.6859
55.6601
56.7149
57.7458
58.8839
60.0596
61.292
62.5574
63.9549
65.35
66.85
68.4468
70.1059
71.8903
73.7148
75.7272
77.7737
79.9512
82.3452
84.6334
87.3237
90.154
92.7994
96.0857
99.3859
102.795
106.495
110.36
114.592
118.96
123.705
128.851
134.153
139.985
146.035
152.67
159.69
167.167
175.349
184.075
193.364
203.537
214.321
226.375
238.807
252.652
267.381
283.547
300.518
319.646
339.44
361.288
34.5064
34.6245
34.8077
34.9706
35.0896
35.2128
35.3557
35.5035
35.6359
35.7688
35.9372
36.1137
36.2778
36.4375
36.6055
36.7942
36.9854
37.1677
37.381
37.6092
37.8465
38.1053
38.3576
38.6248
38.9111
39.2049
39.5161
39.8259
40.1634
40.5137
40.8625
41.2727
41.7067
42.1334
42.5758
43.0691
43.5786
44.0929
44.6257
45.1835
45.7933
46.4052
47.0347
47.7262
48.4215
49.157
49.9239
50.7553
51.5892
52.4612
53.4354
54.3962
55.4043
56.4932
57.6507
58.8101
60.0613
61.3646
62.785
64.1993
65.7433
67.3815
69.0614
70.9341
72.8025
74.8475
77.0406
79.184
81.7476
84.1547
86.9193
89.888
92.6675
96.0258
99.6051
103.236
107.062
111.216
115.787
120.42
125.438
131.147
136.68
142.999
149.688
156.862
164.53
172.88
181.859
191.324
202.119
213.138
225.355
238.934
252.89
268.604
285.557
303.847
323.778
345.282
32.6306
32.7777
33.0011
33.1957
33.3299
33.465
33.6206
33.7755
33.9165
34.0578
34.2312
34.4009
34.5656
34.7211
34.8805
35.057
35.2401
35.411
35.6005
35.8088
36.0226
36.2514
36.478
36.7168
36.9742
37.2419
37.5191
37.7959
38.0952
38.3979
38.7292
39.072
39.4297
39.8131
40.193
40.6272
41.0678
41.5346
42.0281
42.5363
43.0676
43.6243
44.1887
44.7875
45.4143
46.0798
46.7649
47.4894
48.2446
49.0199
49.8364
50.7306
51.6466
52.563
53.6301
54.6874
55.7881
56.9693
58.2408
59.5389
60.9319
62.3859
63.8877
65.6241
67.2659
69.121
71.0913
73.0744
75.3875
77.5109
80.1414
82.6514
85.4668
88.4672
91.539
95.0382
98.5282
102.391
106.548
110.862
115.667
120.579
125.94
131.973
137.97
144.748
151.936
159.727
168.095
177.253
187.046
197.571
209.509
221.706
235.523
250.336
266.45
283.903
303.193
324.056
30.7891
30.958
31.2113
31.4352
31.5864
31.7299
31.8928
32.0531
32.2024
32.3502
32.5126
32.6783
32.8471
32.9966
33.1468
33.3134
33.4858
33.6457
33.8067
33.993
34.1871
34.3881
34.5865
34.7929
35.012
35.2481
35.4931
35.7359
35.9919
36.2619
36.5511
36.8337
37.1475
37.4496
37.7851
38.1481
38.5286
38.9421
39.3034
39.7515
40.2538
40.7641
41.2427
41.7868
42.3463
42.9015
43.5241
44.1444
44.7906
45.4841
46.1615
46.9263
47.7203
48.5409
49.4211
50.3346
51.3585
52.3383
53.4636
54.6333
55.8246
57.1063
58.4655
60.0057
61.4117
63.1007
64.7972
66.6122
68.5448
70.5169
72.8863
75.0166
77.5351
80.2359
83.0621
86.0977
89.3283
92.7437
96.4841
100.445
104.799
109.278
114.216
119.542
125.146
131.373
137.939
145.051
152.884
161.241
170.238
180.267
190.84
202.629
215.357
229.187
244.363
261.116
279.677
299.879
29.0394
29.2237
29.4969
29.7413
29.9057
30.0559
30.224
30.3891
30.5399
30.6842
30.8399
31.0068
31.1669
31.3061
31.4428
31.6024
31.7696
31.9259
32.0681
32.2256
32.3965
32.5653
32.7326
32.9094
33.096
33.2928
33.4974
33.7087
33.9251
34.151
34.3899
34.6335
34.8865
35.1364
35.4221
35.7017
36.0302
36.3525
36.6919
37.0725
37.4715
37.9147
38.3342
38.8265
39.287
39.8031
40.3047
40.8215
41.3928
41.9237
42.5022
43.1811
43.7846
44.5039
45.2453
45.9505
46.8339
47.6981
48.6567
49.6058
50.6664
51.7508
52.9637
54.272
55.435
56.906
58.3145
59.9681
61.556
63.3314
65.2142
67.1294
69.4284
71.6784
74.1627
76.8127
79.722
82.7176
86.1283
89.4868
93.3733
97.4259
101.697
106.476
111.568
117.02
122.939
129.385
136.449
143.797
152.287
161.027
170.845
181.615
192.989
205.863
219.905
235.22
252.727
272.347
27.4287
27.6197
27.9011
28.1554
28.328
28.4816
28.6504
28.8169
28.9678
29.108
29.2528
29.4096
29.556
29.6934
29.8352
29.9854
30.1385
30.2806
30.4119
30.5499
30.6899
30.8294
30.9651
31.103
31.2584
31.4242
31.5937
31.7666
31.9456
32.1363
32.3302
32.5244
32.7215
32.9209
33.1409
33.3758
33.6498
33.9116
34.2137
34.5251
34.881
35.2359
35.6023
35.9944
36.3564
36.8151
37.1999
37.6003
38.0632
38.4986
38.9366
39.4809
39.9645
40.5366
41.1335
41.7436
42.4457
43.1332
43.9594
44.7137
45.609
46.5117
47.5113
48.5216
49.6118
50.781
51.9458
53.386
54.6309
56.2419
57.744
59.4152
61.2831
63.2347
65.3934
67.6619
70.0514
72.6067
75.5885
78.4249
81.833
85.2667
89.048
93.1569
97.4846
102.32
107.488
113.085
119.237
125.805
133.14
140.862
149.805
159.006
169.366
181.005
193.382
207.685
223.962
243.322
25.9927
26.1807
26.4564
26.7086
26.8844
27.039
27.2058
27.3696
27.5141
27.6478
27.7866
27.9325
28.0776
28.2112
28.346
28.4883
28.6307
28.7565
28.8653
28.9882
29.1038
29.2135
29.3123
29.4177
29.5455
29.6795
29.8202
29.9532
30.1035
30.2663
30.4192
30.5572
30.7062
30.8597
31.0259
31.2371
31.4434
31.6671
31.9158
32.1521
32.4692
32.7314
33.0231
33.3281
33.6116
33.9514
34.2517
34.5612
34.8991
35.2308
35.5609
35.9925
36.3455
36.7736
37.2511
37.7458
38.2567
38.8216
39.4297
40.035
40.7606
41.4362
42.2836
43.0593
43.9892
44.8841
45.8687
47.0011
48.0124
49.3331
50.5009
52.0083
53.4393
55.0918
56.8216
58.6869
60.638
62.8108
65.1193
67.5784
70.3192
73.207
76.3891
79.764
83.4341
87.4468
91.8711
96.5072
101.798
107.377
113.582
120.34
127.643
135.886
144.896
154.84
165.696
178.881
193.132
212.115
24.7619
24.9368
25.1902
25.4236
25.5923
25.7458
25.9125
26.0724
26.2092
26.3341
26.471
26.6171
26.7505
26.8695
26.994
27.129
27.2579
27.3616
27.4591
27.5621
27.6543
27.7443
27.8024
27.8833
27.9812
28.0884
28.1991
28.3022
28.4275
28.552
28.679
28.7761
28.8636
28.9792
29.1219
29.293
29.4382
29.6135
29.8062
30.0042
30.2199
30.3972
30.6251
30.8178
31.0218
31.2663
31.4876
31.7003
31.9397
32.1888
32.4204
32.7331
32.979
33.3022
33.6618
34.0232
34.3778
34.8061
35.2679
35.715
36.2536
36.801
37.4245
38.0217
38.7597
39.3949
40.1644
41.0083
41.8563
42.7979
43.77
44.9241
45.9246
47.2575
48.5507
50.0144
51.5363
53.2615
55.0433
57.0676
59.0751
61.3652
63.9243
66.7299
69.5706
72.8217
76.3941
80.0628
84.5236
88.8354
94.0958
99.5169
105.454
112.449
119.764
128.114
137.588
148.292
161.216
177.401
23.7471
23.9011
24.1218
24.3252
24.4754
24.62
24.7797
24.9336
25.0606
25.1721
25.3017
25.4405
25.5623
25.6672
25.7832
25.9104
26.0174
26.1028
26.1849
26.2735
26.3597
26.4225
26.4568
26.5147
26.5774
26.6628
26.7388
26.8221
26.9267
27.0027
27.0813
27.1348
27.1999
27.2844
27.3856
27.5141
27.6006
27.7463
27.8745
28.0056
28.1628
28.2541
28.4017
28.5215
28.6565
28.8274
28.9785
29.1251
29.2863
29.4487
29.5888
29.8008
29.9556
30.1736
30.4079
30.6529
30.8851
31.168
31.495
31.7974
32.1883
32.5621
32.9858
33.4027
33.9022
34.392
34.9411
35.4916
36.17
36.8032
37.517
38.3269
38.991
39.9234
40.8471
41.8785
43.0004
44.2559
45.5472
47.0261
48.5338
50.2441
52.1074
54.1864
56.326
58.7669
61.359
64.2621
67.5459
70.7757
74.8615
78.8435
83.7698
88.84
94.5854
101.169
108.32
116.702
127.005
139.006
22.9499
23.0766
23.2581
23.4251
23.5528
23.6808
23.8226
23.9609
24.0733
24.1708
24.2886
24.4125
24.5195
24.6083
24.7079
24.826
24.9199
24.9858
25.0483
25.1142
25.18
25.2195
25.2407
25.279
25.3345
25.4046
25.4411
25.4939
25.551
25.5858
25.6423
25.6823
25.7351
25.7883
25.8487
25.9292
25.9896
26.0873
26.1485
26.2161
26.2883
26.3185
26.4195
26.4694
26.5481
26.6495
26.7277
26.8256
26.9184
26.9965
27.063
27.1797
27.26
27.3843
27.5053
27.6471
27.7561
27.9325
28.1157
28.2774
28.5182
28.7317
29.002
29.2528
29.5672
29.8644
30.2311
30.5482
30.9747
31.334
31.7989
32.2377
32.6737
33.2568
33.7421
34.3693
35.1286
35.9244
36.7141
37.698
38.6914
39.8439
41.0571
42.453
43.8995
45.5266
47.335
49.2082
51.3942
53.7529
56.2995
59.0491
62.5368
65.5254
69.9943
74.0975
79.1161
85.0661
91.5453
99.8737
22.3679
22.4632
22.5978
22.7247
22.8218
22.9237
23.0399
23.1519
23.2436
23.3241
23.4191
23.5175
23.6038
23.6715
23.75
23.8344
23.905
23.9687
24.0155
24.0665
24.1271
24.1581
24.1832
24.2082
24.2305
24.2716
24.2833
24.316
24.3397
24.3386
24.3657
24.3738
24.4038
24.4165
24.4445
24.5004
24.5187
24.5693
24.5791
24.6098
24.6316
24.6334
24.7021
24.672
24.7219
24.7481
24.7675
24.8194
24.8201
24.8537
24.8543
24.8966
24.9098
24.9434
24.961
24.9789
25.0215
25.065
25.1217
25.2148
25.2739
25.3573
25.4866
25.5758
25.7253
25.8373
25.9932
26.1049
26.3026
26.3995
26.6118
26.7664
26.9183
27.1377
27.2873
27.5313
27.9036
28.2509
28.5744
29.0735
29.5196
30.1308
30.6916
31.4771
32.2167
33.0233
34.0605
34.8951
36.1776
37.2772
38.5444
40.1466
41.6006
43.17
45.5795
46.8681
50.009
52.0657
55.7752
59.9982
21.9876
22.0439
22.1283
22.2122
22.2809
22.3542
22.4346
22.5152
22.588
22.6541
22.7234
22.7907
22.8516
22.9009
22.9509
22.9941
23.031
23.0645
23.0889
23.12
23.1426
23.1576
23.1852
23.1976
23.2131
23.2371
23.237
23.2528
23.2438
23.239
23.2494
23.2511
23.2622
23.2505
23.2616
23.2627
23.2505
23.2574
23.2153
23.2084
23.1806
23.148
23.1562
23.0925
23.1044
23.07
23.0578
23.047
22.9978
22.983
22.9458
22.9236
22.858
22.8166
22.758
22.6982
22.6508
22.6185
22.5972
22.542
22.469
22.4666
22.4494
22.3976
22.3946
22.3312
22.2811
22.2295
22.1823
22.0598
22.0378
21.8989
21.784
21.746
21.6176
21.5033
21.4583
21.3761
21.3037
21.3183
21.2354
21.3178
21.2692
21.418
21.4399
21.4769
21.6789
21.5526
21.8329
21.6885
21.8246
21.8931
21.7078
21.9507
21.4872
21.1665
20.8716
19.3232
18.722
17.383
21.8046
21.8145
21.8327
21.859
21.8836
21.9179
21.9558
21.9945
22.0333
22.0689
22.1023
22.1327
22.1655
22.1937
22.2294
22.2557
22.2787
22.2982
22.2946
22.294
22.2959
22.2831
22.2934
22.2904
22.29
22.3061
22.2869
22.2922
22.2768
22.2593
22.2513
22.2314
22.2272
22.1924
22.1824
22.1618
22.1117
22.0814
22.0158
21.9986
21.9125
21.8564
21.8294
21.7096
21.6919
21.5699
21.5318
21.4478
21.3412
21.2921
21.1659
21.101
20.9533
20.8623
20.7434
20.596
20.5172
20.3456
20.1983
20.0932
19.9396
19.7793
19.6115
19.4452
19.2721
19.0306
18.8199
18.5384
18.2983
18.0061
17.671
17.3789
17.0118
16.6534
16.311
15.9423
15.5643
15.1092
14.6563
14.1901
13.6366
13.1836
12.4787
12.1085
11.3782
10.77
10.0463
9.11388
8.17995
6.80857
5.6873
4.07161
2.38989
0.808469
-1.90477
-3.7413
-7.69267
-11.356
-17.1883
-24.6914
15.3773
15.9918
16.2923
16.7271
17.0992
17.4869
17.8632
18.2416
18.6191
18.9956
19.3684
19.739
20.115
20.4932
20.8716
21.2483
21.6198
21.986
22.3525
22.723
23.1118
23.4962
23.8759
24.242
24.6072
24.9989
25.3943
25.7792
26.147
26.5019
26.8547
27.2352
27.6454
28.0713
28.5013
28.928
29.3497
29.7692
30.1752
30.5677
30.9543
31.335
31.7168
32.0901
32.4495
32.799
33.1303
33.4496
33.7703
34.0901
34.3895
34.6763
34.9766
35.2969
35.616
35.9188
36.1856
36.4922
36.7991
37.0598
37.3576
37.6566
37.9377
38.1785
38.3096
38.345
38.381
38.5087
38.5788
38.5241
38.4924
38.3804
38.1392
37.7145
37.0446
36.4031
35.7157
34.8733
33.7989
32.6312
31.3758
30.2254
29.2618
27.6921
26.7221
25.8122
25.2014
24.946
25.2134
25.2683
27.0678
28.9153
31.4838
34.1887
36.2517
37.6079
38.2975
37.4468
30.6451
16.1632
16.8387
17.4542
17.6837
18.1127
18.4606
18.8265
19.187
19.5407
19.8943
20.2453
20.5948
20.9432
21.2907
21.6386
21.9869
22.3358
22.6866
23.0382
23.3937
23.7573
24.1159
24.4628
24.8086
25.168
25.5386
25.8912
26.23
26.5745
26.9321
27.3183
27.7284
28.1135
28.4643
28.8097
29.1628
29.5227
29.8836
30.2399
30.5955
30.9495
31.3032
31.6434
31.9684
32.2893
32.5999
32.8937
33.1797
33.4677
33.755
34.026
34.2853
34.5528
34.8288
35.0876
35.3204
35.5541
35.8068
36.0561
36.2821
36.481
36.6653
36.8265
36.938
37.0286
37.0807
37.1043
37.1398
37.0927
36.9559
36.7702
36.5454
36.1985
35.7309
35.1642
34.4713
33.6967
32.7029
31.5705
30.3305
28.9882
27.6978
26.3072
24.9223
23.5847
22.1939
21.0117
19.8992
18.8994
18.1852
17.3305
17.1347
16.6964
16.4971
16.6891
15.407
13.0092
8.79125
2.38046
-8.80056
-27.6284
18.3052
18.9045
19.0887
19.4944
19.809
20.1431
20.4777
20.8066
21.1371
21.4642
21.7918
22.1178
22.4446
22.7723
23.1006
23.43
23.7594
24.0892
24.4182
24.7465
25.0694
25.394
25.7269
26.0536
26.3726
26.6842
27.02
27.3849
27.7631
28.1152
28.4398
28.7617
29.0908
29.4227
29.7491
30.0729
30.3921
30.7023
31.0079
31.3071
31.5934
31.8686
32.1369
32.4003
32.6529
32.8976
33.1473
33.399
33.6399
33.8628
34.0865
34.3194
34.5247
34.6982
34.867
35.054
35.2464
35.3975
35.5231
35.6307
35.7294
35.7979
35.8042
35.7736
35.6949
35.5916
35.4533
35.2021
34.894
34.51
34.0655
33.5121
32.8568
32.1762
31.3535
30.3497
29.0881
27.7289
26.2906
24.7773
23.3651
21.8505
20.2722
18.6778
16.8763
15.2444
13.6043
11.7982
10.0919
8.29819
6.56412
4.68867
2.37806
-0.786783
-5.51691
-11.3249
-18.9876
-29.3122
-44.5866
-66.1815
19.7702
20.3226
20.4889
20.8557
21.1499
21.455
21.764
22.0709
22.3772
22.6826
22.9879
23.2919
23.5963
23.9
24.2035
24.5066
24.808
25.1081
25.4066
25.7059
26.0044
26.308
26.6099
26.9097
27.2176
27.5473
27.8737
28.173
28.4615
28.7577
29.0562
29.3546
29.6546
29.9516
30.2387
30.517
30.7869
31.0431
31.2897
31.5303
31.7552
31.9779
32.2011
32.4134
32.6201
32.8265
33.0321
33.2201
33.3869
33.5525
33.7173
33.8613
33.975
34.0885
34.2162
34.3312
34.4145
34.4398
34.4604
34.4855
34.4696
34.4186
34.2956
34.1441
33.9524
33.6931
33.3964
32.9762
32.5121
32.0019
31.389
30.7244
29.9694
29.1104
27.9974
26.6447
25.1726
23.7007
22.1767
20.5422
18.9225
17.1437
15.089
13.1215
10.9193
8.47381
6.0083
3.2885
0.463945
-2.46003
-5.58704
-9.19273
-13.6795
-19.4239
-26.2181
-34.3576
-44.836
-58.5718
-76.7176
-100.724
21.2071
21.7038
21.855
22.1827
22.4528
22.7289
23.0107
23.2898
23.5703
23.8491
24.1281
24.4068
24.6848
24.9626
25.2399
25.5164
25.7921
26.0666
26.3417
26.6172
26.8903
27.1698
27.447
27.7354
28.0326
28.3132
28.5741
28.8327
29.095
29.3585
29.6214
29.8835
30.139
30.3845
30.623
30.8484
31.0584
31.2596
31.4516
31.6358
31.8157
31.9962
32.1712
32.3325
32.4931
32.649
32.7861
32.9088
33.0279
33.1418
33.2389
33.3136
33.3798
33.4435
33.4932
33.4899
33.443
33.387
33.325
33.2442
33.0935
32.8693
32.6038
32.293
31.9451
31.528
31.0659
30.5096
29.9184
29.2959
28.515
27.6474
26.6051
25.3539
23.9108
22.4127
20.9469
19.4003
17.7537
15.957
13.9449
11.824
9.3907
6.87497
4.18261
1.05874
-2.13615
-5.58197
-9.33258
-13.4089
-17.9967
-23.6785
-30.1774
-37.3221
-45.9982
-56.534
-69.5486
-85.7118
-105.822
-131.076
22.6109
23.0469
23.188
23.4728
23.7205
23.9672
24.2185
24.4697
24.7219
24.9735
25.2256
25.4771
25.7287
25.9801
26.2316
26.4828
26.7345
26.9858
27.2399
27.4912
27.7468
27.9997
28.2512
28.4946
28.7272
28.9604
29.1957
29.4314
29.6635
29.8927
30.1138
30.328
30.5345
30.7261
30.9072
31.0772
31.2354
31.3946
31.5451
31.6882
31.8341
31.9701
32.0936
32.2119
32.3227
32.4182
32.4971
32.5711
32.6331
32.6746
32.6909
32.6912
32.6769
32.6288
32.552
32.4326
32.3017
32.175
32.0023
31.7686
31.4586
31.1098
30.75
30.339
29.8899
29.3558
28.7317
28.0626
27.3351
26.4969
25.4688
24.3361
23.0319
21.5591
20.0501
18.5935
17.0847
15.2642
13.2777
11.1185
8.61816
6.02839
3.15443
-0.0918483
-3.38468
-7.03564
-10.8896
-15.169
-20.0304
-25.3474
-31.324
-38.0504
-45.5955
-54.4577
-65.1489
-77.7648
-92.4864
-110.374
-131.932
-157.895
23.9717
24.3535
24.4805
24.7298
24.9503
25.1696
25.3938
25.6152
25.8398
26.0629
26.2868
26.5109
26.7347
26.9588
27.1826
27.4065
27.6305
27.8553
28.0804
28.3027
28.527
28.7476
28.9632
29.1701
29.3761
29.5807
29.784
29.983
30.173
30.3488
30.5215
30.685
30.8358
30.9785
31.1046
31.2292
31.3532
31.4725
31.5862
31.6928
31.7919
31.8751
31.9476
32.0142
32.0622
32.0931
32.115
32.1214
32.1021
32.0645
32.0075
31.9291
31.8334
31.7039
31.5475
31.3767
31.1717
30.9347
30.6074
30.228
29.8221
29.3977
28.9441
28.3928
27.7573
27.0237
26.2165
25.3683
24.378
23.2348
22.0076
20.7301
19.3365
17.8641
16.3815
14.6967
12.7949
10.5862
8.16592
5.66404
2.8527
-0.142455
-3.31155
-6.84498