/*--------------------------------*- C++ -*----------------------------------*\
| =========                 |                                                 |
| \\      /  F ield         | OpenFOAM: The Open Source CFD Toolbox           |
|  \\    /   O peration     | Version:  2.3.1                                 |
|   \\  /    A nd           | Web:      www.OpenFOAM.org                      |
|    \\/     M anipulation  |                                                 |
\*---------------------------------------------------------------------------*/
FoamFile
{
    version     2.0;
    format      ascii;
    class       surfaceScalarField;
    location    "1000";
    object      phi;
}
// * * * * * * * * * * * * * * * * * * * * * * * * * * * * * * * * * * * * * //

dimensions      [0 3 -1 0 0 0 0];

internalField   nonuniform List<scalar> 
38410
(
653893
-176631
189405
641327
-173784
186351
628961
-170983
183349
616795
-168229
180395
604825
-165517
177487
593048
-162852
174629
581463
-160231
171816
570063
-157659
169059
558849
-155133
166346
547816
-152656
163689
536963
-150219
161072
526289
-147833
158507
515790
-145478
155977
505466
-143171
153495
495312
-140892
151046
485324
-138651
148639
475497
-136439
146266
465827
-134265
143934
456312
-132118
141633
446952
-130013
139373
437742
-127929
137139
428683
-125888
134948
419766
-123868
132785
410988
-121889
130667
402348
-119936
128576
393839
-118017
126526
385466
-116135
124508
377224
-114290
122532
369115
-112472
120581
361139
-110701
118677
353287
-108944
116796
345565
-107237
114959
337964
-105539
113140
330487
-103879
111356
323135
-102250
109602
315891
-100621
107865
308774
-99052.1
106169
301766
-97470.2
104478
294871
-95941.6
102837
288085
-94408.2
101194
281407
-92922.5
99600.9
274833
-91439.7
98013.7
268361
-89988.8
96460.3
261993
-88561.7
94930.1
255719
-87140.7
93414.7
249547
-85772.2
91944.1
243473
-84390.9
90464.7
237490
-83058.8
89041.7
231608
-81731.7
87613.6
225812
-80427.9
86224.5
220112
-79159.2
84858.5
214501
-77890.6
83501.5
208980
-76673.9
82195.3
203540
-75432.4
80872.9
198185
-74265.8
79620.2
192916
-73068.3
78337.2
187721
-71943.5
77139.1
182619
-70797.5
75899.1
177580
-69705.6
74745
172640
-68610.7
73550.2
167757
-67556
72438.9
162968
-66485.5
71275.3
158239
-65487.9
70216.5
153588
-64431.6
69082.6
149008
-63490.3
68070.4
144499
-62459.8
66968.8
140061
-61548.7
65986.4
135696
-60559.6
64924.5
131399
-59673.3
63970.1
127173
-58732
62958
123005
-57862.6
62031.2
118908
-56963.1
61059.7
114858
-56124
60173.7
110880
-55237.7
59216.6
106950
-54465.8
58395.4
103075
-53573.8
57449.4
99248.6
-52845.7
56671.7
95482.3
-52003.4
55769.7
91753.1
-51275.9
55005.1
88080.5
-50492.9
54165.5
84466
-49772.8
53387.3
80892.3
-49068.2
52642
77384.2
-48322.5
51830.5
73920.8
-47704.6
51168.1
70509.8
-46987.5
50398.4
67148.9
-46371.3
49732.1
63805.9
-45745.9
49088.9
60528.8
-45115.6
48392.8
57257.9
-44594.4
47865.3
54008.7
-43966.3
47215.4
50771.2
-43468.2
46705.7
47555.7
-42965.6
46181.1
44330
-42461.4
45687.2
41100
-42002.7
45232.7
37901.1
-41649.3
44848.1
34677.1
-41142.9
44367
31484.2
-40980.3
44173.2
28211.8
-40562.9
43835.3
25068.4
-40353.2
43496.6
-40793.6
43976.9
21885.1
653924
-163888
641387
-161248
629053
-158649
616919
-156094
604977
-153575
593220
-151094
581648
-148659
570280
-146291
559100
-143953
548101
-141657
537283
-139401
526640
-137190
516172
-135010
505875
-132874
495747
-130764
485786
-128690
475983
-126636
466336
-124617
456840
-122622
447494
-120667
438298
-118734
429247
-116837
420338
-114958
411568
-113119
402938
-111306
394447
-109526
386093
-107781
377872
-106069
369782
-104382
361826
-102745
353996
-101114
346291
-99532.6
338708
-97955.2
331247
-96418.3
323901
-94903.9
316674
-93394
309562
-91939.9
302563
-90470.8
295673
-89052.2
288891
-87625.6
282214
-86246.4
275640
-84865.6
269173
-83520.9
262803
-82192.6
256538
-80874.9
250368
-79602.7
244296
-78318.3
238318
-77081.3
232440
-75853.8
226651
-74639
220959
-73466.7
215353
-72284.3
209835
-71155.8
204405
-70003.3
199057
-68916.9
193806
-67817.6
188614
-66751.5
183527
-65710.6
178491
-64669.7
173561
-63680.7
168674
-62669.2
163897
-61708.4
159161
-60751.7
154518
-59788.9
149941
-58913
145433
-57951.4
140996
-57112.6
136630
-56193.7
132332
-55375.3
128094
-54494
123917
-53685.5
119814
-52860.2
115750
-52059.6
111775
-51262.5
107826
-50517
103965
-49713.3
100140
-49020.6
96383.1
-48246.2
92673.8
-47566.5
89011.6
-46830.7
85415.8
-46177
81838
-45490.5
78344
-44828.4
74859.1
-44219.7
71430.9
-43559.3
68047.2
-42987.6
64682.4
-42381.1
61365.1
-41798.4
58064
-41293.3
54803.8
-40706
51565.6
-40230.1
48339.9
-39739.9
45162.2
-39283.7
41958.4
-38799
38827.3
-38518.2
35689.1
-38004.7
32539.2
-37830.4
29410.8
-37434.6
26274.5
-37216.8
-37487.7
22968.6
653951
-151173
641441
-148738
629135
-146343
617027
-143987
605115
-141664
593406
-139385
581901
-137154
570554
-134944
559383
-132782
548397
-130672
537605
-128608
527006
-126591
516586
-124590
506291
-122579
496192
-120664
486253
-118751
476457
-116840
466835
-114995
457346
-113134
447997
-111318
438781
-109518
429728
-107784
420839
-106069
412091
-104371
403496
-102711
394986
-101016
386619
-99414.2
378395
-97845.2
370305
-96291.2
362350
-94790.9
354526
-93289.4
346832
-91838.6
339260
-90383.5
331806
-88964.4
324467
-87564.8
317235
-86161.7
310140
-84844.8
303165
-83495.6
296274
-82161.7
289496
-80847.4
282822
-79572.5
276262
-78305.7
269803
-77061.6
263450
-75840
257199
-74623.7
251045
-73449.1
244991
-72263.6
239024
-71114.5
233150
-69980
227370
-68859.5
221690
-67785.8
216094
-66688.6
210584
-65645.8
205170
-64589.4
199823
-63569.9
194578
-62572.4
189390
-61563.6
184306
-60627.3
179278
-59641.6
174349
-58752
169477
-57797.2
164708
-56938.8
159984
-56027.5
155356
-55160.9
150785
-54342.1
146281
-53447.6
141849
-52680.7
137487
-51831.8
133186
-51074.2
128958
-50266.3
124783
-49510.3
120686
-48762.8
116631
-48005.3
112658
-47289
108721
-46580.1
104871
-45863.4
101043
-45192.5
97295.2
-44498.1
93589.6
-43860.9
89926.7
-43167.9
86336.3
-42586.5
82761
-41915.3
79275.9
-41343.3
75791
-40734.8
72382.6
-40150.9
69003.7
-39608.7
65661.4
-39038.7
62364.9
-38501.9
59090.1
-38018.4
55861.1
-37477.1
52667.8
-37036.8
49477.4
-36549.4
46357.9
-36164.1
43212
-35653.1
40083.5
-35389.7
36952.8
-34874
33771.6
-34649.3
30613.3
-34276.2
27411.7
-34015.2
-34128.5
24052.6
653977
-138483
641493
-136254
629209
-134060
617123
-131900
605231
-129772
593532
-127687
582011
-125632
570691
-123624
559564
-121655
548620
-119728
537847
-117836
527237
-115981
516800
-114154
506568
-112347
496482
-110578
486531
-108800
476754
-107063
467143
-105384
457679
-103670
448375
-102014
439227
-100370
430201
-98758.1
421301
-97169.2
412536
-95605.9
403891
-94066.1
395436
-92560.9
387110
-91088.7
378909
-89644.1
370838
-88220
362906
-86859.2
355115
-85498.6
347438
-84161.5
339867
-82811.7
332415
-81512.4
325085
-80235
317888
-78964.7
310807
-77764
303812
-76500.1
296924
-75274
290158
-74081.7
283492
-72906.1
276942
-71756
270486
-70605.8
264138
-69491.4
257887
-68373.1
251738
-67299.8
245692
-66218
239744
-65166.2
233900
-64136.2
228127
-63086.3
222437
-62096.2
216847
-61098.4
211334
-60132.6
205921
-59176.6
200577
-58225.5
195334
-57329.3
190160
-56389.6
185071
-55538.9
180060
-54630.2
175124
-53816.3
170264
-52936.6
165480
-52155.6
160765
-51312.3
156132
-50528.2
151568
-49778.1
147078
-48956.8
142659
-48261.9
138296
-47468.9
133998
-46776.5
129765
-46033.4
125595
-45340.2
121488
-44655.4
117445
-43962.8
113464
-43308.1
109524
-42640.1
105664
-42002.6
101834
-41363.3
98077.9
-40741.7
94370
-40153
90706.4
-39504.4
87115.5
-38995.6
83535.9
-38335.6
80046.6
-37854
76561.4
-37249.6
73151.7
-36741.2
69762
-36219.1
66420
-35696.7
63126.1
-35208.1
59844.9
-34737.2
56611
-34243.1
53412.8
-33838.6
50207.4
-33344.1
47040.7
-32997.5
43881.8
-32494.1
40731.5
-32239.5
37575.6
-31718.1
34462.9
-31536.6
31318.4
-31131.7
28246.8
-30943.6
-30869.2
24987.4
654000
-125816
641536
-123791
629273
-121797
617207
-119834
605335
-117900
593649
-116000
582152
-114136
570842
-112313
559719
-110531
548773
-108782
538008
-107071
527418
-105390
517000
-103736
506756
-102104
496677
-100499
486770
-98893.8
477025
-97317.7
467411
-95769.8
457946
-94205.3
448634
-92702.4
439476
-91211.5
430469
-89750.6
421601
-88301.4
412869
-86874.4
404269
-85466.1
395810
-84101.8
387499
-82778
379315
-81459.7
371267
-80171.9
363345
-78937.2
355534
-77687.1
347830
-76457.7
340259
-75241.3
332813
-74066.4
325487
-72908.8
318284
-71762
311178
-70657.4
304202
-69524.2
297340
-68411.7
290594
-67336.3
283942
-66253.6
277399
-65213.1
270955
-64161.8
264622
-63158.8
258390
-62140.9
252256
-61166
246215
-60177.3
240258
-59208.7
234400
-58278.6
228633
-57319
222953
-56416.5
217371
-55516.5
211856
-54617.4
206439
-53759.3
201096
-52882.7
195846
-52078.7
190675
-51218.6
185587
-50451.3
180581
-49624.6
175652
-48887
170803
-48088
166021
-47372.8
161325
-46616.5
156687
-45890.5
152126
-45216.9
147635
-44465.4
143210
-43837
138845
-43104.5
134562
-42493.1
130328
-41799.6
126171
-41183.1
122061
-40545.4
118020
-39921.4
114037
-39326.1
110106
-38708.9
106247
-38143
102436
-37552.5
98691.4
-36997.1
94977.5
-36439.1
91339.4
-35866.2
87732.8
-35389.1
84182.7
-34785.5
80693.4
-34364.6
77218.3
-33774.5
73823.3
-33346.2
70435.3
-32831
67115.5
-32376.9
63828.3
-31920.8
60571.3
-31480.2
57354.5
-31026.4
54181.4
-30665.5
51007.5
-30170.2
47882.9
-29872.8
44778.6
-29389.8
41695.2
-29156
38620.1
-28643
35581.9
-28498.4
32443.9
-27993.7
29359.7
-27859.4
-27681.9
26172.5
654021
-113170
641578
-111347
629333
-109552
617284
-107784
605427
-106043
593758
-104331
582277
-102655
570982
-101018
559870
-99419.7
548942
-97853.7
538194
-96323.3
527624
-94819.4
517222
-93334.4
506987
-91868.5
496909
-90420.9
486996
-88981.3
477246
-87567.4
467649
-86173
458219
-84775.2
448932
-83415
439790
-82070.3
430794
-80754.5
421944
-79451.4
413253
-78183.2
404711
-76923.5
396290
-75681.4
387983
-74470.4
379792
-73268.8
371737
-72117.5
363783
-70983
355952
-69856.1
348265
-68770.9
340712
-67688.2
333281
-66635.6
325962
-65589.3
318760
-64559.7
311657
-63554.4
304683
-62550
297821
-61550
291083
-60598.2
284448
-59619
277920
-58685
271491
-57733.1
265162
-56829.7
258927
-55905.8
252780
-55018.6
246734
-54131.5
240777
-53251.4
234911
-52413.1
229144
-51551.7
223456
-50728.8
217875
-49934.9
212371
-49113.8
206963
-48351.1
201631
-47551.2
196385
-46832.5
191223
-46056
186140
-45368.8
181137
-44621.6
176213
-43963.2
171366
-43241
166592
-42598.4
161901
-41925
157272
-41261.9
152719
-40664.4
148230
-39975.5
143804
-39411.2
139449
-38749.4
135157
-38201.5
130923
-37566
126765
-37025.1
122656
-36436.1
118618
-35883.9
114636
-35343.6
110711
-34784.3
106857
-34288.4
103039
-33734.2
99296.5
-33255.1
95579.1
-32721.7
91954.1
-32241.2
88340.6
-31775.6
84803.2
-31248.1
81297.9
-30859.3
77835.5
-30312.2
74438.5
-29949.2
71051.6
-29444.1
67730.1
-29055.4
64436.7
-28627.4
61179.6
-28223.2
57946.3
-27793.1
54764.5
-27483.6
51589.1
-26994.8
48459.4
-26743.1
45357.6
-26288.1
42233.6
-26032
39191.1
-25600.5
36077.7
-25385
32996
-24912
29852.8
-24716.2
-24628.6
26799.4
654040
-100544
641616
-98922.9
629388
-97324.3
617355
-95750.8
605512
-94200.7
593859
-92677.7
582392
-91188.8
571110
-89735.2
560010
-88320.3
549095
-86938.2
538358
-85586.2
527795
-84256.3
517402
-82941.6
507176
-81642.4
497109
-80354.6
487211
-79082.8
477468
-77824.4
467880
-76585.5
458451
-75345.5
449170
-74133.9
440033
-72933.1
431038
-71760.3
422183
-70596.5
413467
-69466.8
404887
-68343.9
396442
-67236.1
388133
-66161.7
379952
-65087.5
371909
-64074.1
363982
-63056.7
356200
-62074.1
348533
-61103.8
340988
-60143.3
333568
-59215.6
326253
-58274.3
319067
-57373
311975
-56463.1
305004
-55578.5
298145
-54691.4
291398
-53851.4
284758
-52978.8
278221
-52148
271782
-51293.7
265445
-50492.8
259205
-49665.8
253063
-48876.2
247018
-48087
241071
-47304.4
235216
-46557.7
229460
-45795.9
223784
-45052.7
218202
-44353.5
212705
-43616.2
207298
-42944.4
201975
-42227.9
196734
-41591.9
191577
-40899.4
186499
-40290.7
181497
-39619.3
176573
-39039.3
171726
-38393.7
166956
-37828.8
162257
-37225.4
157629
-36634.5
153073
-36108.2
148587
-35489.7
144172
-34995.9
139827
-34404.1
135549
-33923.5
131331
-33348.2
127182
-32876
123082
-32336.8
119058
-31859.6
115072
-31357.6
111166
-30878.4
107286
-30408.5
103478
-29926.4
99726.4
-29503.1
96024
-29019.3
92381.8
-28599.1
88766.7
-28160.5
85232.4
-27713.8
81717.4
-27344.3
78265.8
-26860.6
74858.6
-26542
71485
-26070.5
68162.7
-25733.1
64878.5
-25343.1
61631
-24975.7
58426.2
-24588.3
55246.2
-24303.6
52116.4
-23865.1
49000.2
-23626.9
45953.8
-23241.7
42877
-22955.2
39914.4
-22637.9
36872.6
-22343.1
33931.3
-21970.7
30905
-21689.9
-21599.1
27875.5
654057
-87934.5
641650
-86515.2
629437
-85111.3
617416
-83730.5
605587
-82371.1
593946
-81037.2
582492
-79734.8
571220
-78463.4
560130
-77230.4
549223
-76031.1
538493
-74855.9
527937
-73700.5
517553
-72557.2
507336
-71425.6
497282
-70300.6
487388
-69189.2
477653
-68089.2
468073
-67005.4
458646
-65918.3
449372
-64860.2
440241
-63801.8
431253
-62773
422408
-61751
413692
-60750.6
405117
-59769.9
396673
-58791.2
388366
-57855.2
380193
-56914.5
372151
-56032.2
364236
-55141.4
356453
-54291
348788
-53439.3
341249
-52604.4
333834
-51799.8
326533
-50973.9
319364
-50203.7
312300
-49398.9
305357
-48635.9
298518
-47852.6
291772
-47105
285124
-46331.3
278580
-45603.5
272132
-44846.1
265788
-44148.9
259543
-43420.5
253404
-42736.9
247351
-42034.1
241407
-41361
235545
-40694.8
229790
-40041.4
224121
-39384
218546
-38778.3
213057
-38127.2
207655
-37542.6
202343
-36915.4
197102
-36351.1
191951
-35748
186872
-35211.9
181878
-34625.5
176955
-34116.3
172106
-33544.9
167335
-33057.7
162632
-32522.1
158008
-32010.7
153444
-31543.7
148957
-31003
144533
-30571.7
140181
-30052
135890
-29632.9
131666
-29123.6
127519
-28729.4
123410
-28227.3
119390
-27839.6
115399
-27366.9
111507
-26986.5
107621
-26522.6
103844
-26149.7
100069
-25727.4
96378.5
-25329.1
92734.7
-24955.3
89123.7
-24549.5
85604.9
-24195
82077.5
-23816.9
78659.5
-23442.6
75231.8
-23114.3
71892.6
-22731.3
68566.5
-22407
65312.3
-22088.9
62063.8
-21727.2
58894
-21418.4
55719
-21128.6
52618.9
-20764.9
49501.4
-20509.4
46455.3
-20195.6
43400.9
-19900.9
40388.2
-19625.2
37423.5
-19378.4
34430.1
-18977.4
31539.1
-18798.8
-18485.5
28425.5
654073
-75341
641679
-74121.4
629478
-72910.1
617469
-71721.1
605650
-70552.1
594019
-69406.7
582574
-68289.9
571311
-67200.2
560228
-66147.3
549326
-65129.3
538603
-64132.4
528054
-63151.4
517676
-62179.3
507465
-61214.5
497417
-60252.5
487529
-59301
477800
-58360.6
468224
-57429.2
458801
-56495.2
449532
-55591.4
440404
-54673.5
431412
-53781.3
422569
-52907.6
413854
-52035.7
405281
-51197.5
396841
-50351.2
388542
-49555.6
380373
-48746.2
372332
-47991
364419
-47228.3
356634
-46506
348974
-45779.6
341436
-45066.4
334017
-44380.4
326713
-43669.8
319520
-43010.7
312436
-42315.2
305465
-41664.9
298604
-40991.3
291854
-40355.4
285218
-39694.6
278693
-39078.3
272271
-38424.6
265950
-37827.6
259723
-37193.8
253600
-36614
247564
-35997.9
241637
-35433.5
235783
-34840.8
230033
-34292.2
224364
-33715
218772
-33186
213278
-32633.3
207853
-32117.8
202542
-31604.6
197291
-31099.6
192150
-30606.8
187061
-30123.4
182070
-29633.8
177144
-29191.2
172298
-28698.1
167523
-28282.6
162816
-27815.8
158188
-27382.7
153621
-26976.1
149141
-26523.8
144717
-26147.4
140375
-25710
136089
-25346.3
131874
-24908.6
127721
-24576.9
123630
-24135.9
119601
-23811
115628
-23394
111720
-23078.2
107869
-22671.4
104068
-22349.1
100332
-21991.4
96641.2
-21638.2
93019.9
-21334
89414.7
-20944.3
85905.6
-20685.9
82391.8
-20303
78980
-20030.8
75561.3
-19695.6
72233.5
-19403.5
68905.8
-19079.4
65644.1
-18827.3
62411.7
-18494.8
59224.9
-18231.6
56057.9
-17961.6
52947.1
-17654.2
49865.2
-17427.5
46788.5
-17118.8
43811.8
-16924.2
40772.3
-16585.7
37866.4
-16472.5
34946.8
-16057.7
32236.6
-16088.7
-15767.5
29518.6
654087
-62761.3
641704
-61738.8
629513
-60719.1
617513
-59720.4
605702
-58741
594079
-57783.8
582641
-56852.6
571386
-55944.9
560309
-55070.3
549412
-54232.3
538693
-53412.8
528147
-52606.3
517773
-51804.8
507565
-51006.8
497522
-50209.5
487638
-49416.8
477910
-48632.8
468337
-47856.1
458919
-47076.7
449646
-46318.2
440517
-45545.2
431524
-44787.6
422678
-44062.2
413968
-43325.3
405397
-42626.7
396963
-41917.5
388665
-41257.4
380501
-40581.7
372464
-39954.9
364554
-39318.3
356770
-38721.8
349108
-38117.9
341569
-37527
334143
-36954
326836
-36363.3
319644
-35819
312567
-35237.8
305603
-34701.1
298750
-34138.4
292008
-33612.9
285371
-33057.7
278838
-32545.4
272412
-31998.4
266085
-31501.2
259858
-30966.9
253729
-30484.6
247699
-29967.5
241762
-29496.7
235917
-28996.2
230163
-28538.5
224515
-28067
218935
-27605.9
213475
-27172.8
208066
-26709.1
202764
-26301.9
197512
-25848.5
192367
-25461.8
187271
-25027.4
182280
-24642.2
177351
-24262.6
172508
-23854.7
167738
-23513.1
163041
-23118.4
158427
-22768.6
153872
-22421.3
149399
-22050.7
144982
-21730.6
140635
-21363
136348
-21059
132132
-20692.6
127957
-20402
123874
-20053
119818
-19754.8
115867
-19443.5
111916
-19127.6
108097
-18852
104260
-18512.4
100545
-18275.6
96829.9
-17923.5
93207.4
-17711.5
89612.1
-17348.9
86080.5
-17154.3
82591.3
-16813.8
79140.4
-16580
75758.4
-16313.6
72386.1
-16031.1
69114.9
-15808.2
65803.2
-15515.6
62634.4
-15326
59414.5
-15011.7
56304.4
-14851.5
53184.3
-14534
50139.6
-14382.8
47096
-14075.2
44136.6
-13964.8
41148.6
-13597.7
38242.8
-13566.8
35259.7
-13074.6
32125.1
-12954
-12343.2
28700.8
654098
-50192.8
641725
-49365.2
629542
-48536.5
617548
-47726.8
605744
-46936.4
594127
-46167
582695
-45421.1
571446
-44695.3
560374
-43998.2
549481
-43339.4
538765
-42697.1
528223
-42064.5
517851
-41432.8
507645
-40800.1
497601
-40166.1
487717
-39532.9
477990
-38905.4
468418
-38284
458997
-37656.2
449716
-37036.3
440588
-36417.6
431601
-35801
422757
-35217.6
414049
-34617.9
405481
-34058.2
397050
-33486.7
388750
-32957.7
380583
-32414.3
372545
-31917.1
364634
-31406.9
356847
-30935.4
349183
-30453.3
341644
-29988.2
334220
-29530.4
326917
-29060
319728
-28629.8
312653
-28162.9
305692
-27739.7
298840
-27286.6
292097
-26870.1
285461
-26422
278927
-26010.7
272503
-25575.3
266169
-25166.8
259948
-24746.3
253804
-24340.5
247779
-23942.3
241827
-23544.3
235991
-23160
230220
-22768.1
224562
-22408.8
218971
-22015.4
213486
-21687.2
208074
-21297.5
202758
-20985.5
197517
-20608
192370
-20314.2
187291
-19948.6
182309
-19660.1
177372
-19326
172541
-19023.7
167761
-18732.4
163061
-18418.7
158436
-18143.4
153871
-17856.8
149387
-17566.4
144962
-17305.2
140620
-17021.1
136323
-16761.8
132137
-16506.7
127961
-16226.2
123910
-16001.9
119863
-15707.8
115926
-15507
111998
-15199.4
108172
-15025.5
104360
-14700.6
100638
-14553.4
96939.4
-14225.3
93314
-14086.2
89732.3
-13767.2
86194.2
-13616.1
82723.1
-13342.7
79281.8
-13138.7
75906.2
-12938
72558.9
-12683.8
69292.9
-12542.1
66005.7
-12228.5
62835.8
-12156.1
59663.5
-11839.4
56535.6
-11723.5
53476.7
-11475.1
50393.9
-11300.1
47416.6
-11097.9
44396.1
-10944.2
41482.3
-10683.9
38522.2
-10606.7
35759.1
-10311.5
33085.2
-10280.2
-9977.39
30719.4
654107
-37633.2
641741
-36999.1
629565
-36361
617578
-35739.3
605779
-35137.1
594166
-34554.8
582739
-33993.9
571494
-33450.4
560427
-32930.9
549537
-32449.6
538824
-31983.7
528283
-31523.3
517910
-31059.8
507701
-30591.7
497656
-30121.2
487772
-29648.3
478044
-29178.3
468469
-28708.4
459046
-28232.9
449762
-27753
440631
-27286.6
431643
-26813.1
422797
-26371.3
414092
-25912.6
405524
-25490.9
397092
-25054.8
388794
-24658.9
380628
-24248.6
372591
-23880.6
364682
-23497.8
356897
-23149.7
349235
-22791.6
341693
-22446.8
334275
-22112.2
326974
-21759.2
319788
-21443.9
312717
-21091.9
305758
-20780.2
298906
-20435.1
292160
-20124
285528
-19789.4
278986
-19469
272567
-19156.2
266227
-18827
260010
-18528.6
253870
-18200.6
247846
-17918.2
241896
-17594.9
236060
-17323.5
230297
-17005
224638
-16749.6
219059
-16437.3
213569
-16197
208166
-15894.3
202849
-15668.3
197614
-15373.2
192459
-15159.2
187383
-14872.5
182396
-14673
177464
-14394
172643
-14203
167858
-13947.3
163176
-13736.2
158554
-13522.1
153998
-13300.6
149524
-13092
145105
-12886.9
140773
-12688.9
136468
-12457
132271
-12309.3
128098
-12053.5
124017
-11920.4
119968
-11659.3
116005
-11544.1
112084
-11278.2
108231
-11172.1
104437
-10906.7
100694
-10810.5
97013.1
-10544.6
93375.8
-10448.9
89814.4
-10205.8
86277.8
-10079.5
82819.6
-9884.55
79397.2
-9716.34
76008.7
-9549.46
72718.1
-9393.22
69389.5
-9213.56
66208.7
-9047.69
62969.9
-8917.22
59846.1
-8715.64
56693
-8570.37
53667.9
-8450.05
50577.1
-8209.34
47609.9
-8130.74
44581.7
-7915.98
41664.3
-7766.48
38593.3
-7535.69
35720.3
-7438.51
32670.2
-7230.16
-7154.59
29847.5
654113
-25079.9
641753
-24638.9
629584
-24191.4
617601
-23757.1
605807
-23342.4
594199
-22947.2
582776
-22571.1
571536
-22210.1
560473
-21868.1
549585
-21561.6
538872
-21270.4
528329
-20980.5
517953
-20683.6
507742
-20380.6
497694
-20072.9
487807
-19761.5
478080
-19451.5
468503
-19130.8
459078
-18808.1
449797
-18472.7
440664
-18153.3
431676
-17824.9
422825
-17519.8
414118
-17206.2
405547
-16919.6
397111
-16618.9
388810
-16358
380643
-16081.6
372605
-15842.1
364696
-15589.4
356911
-15365
349256
-15136.2
341716
-14906.7
334301
-14697.3
327000
-14458.1
319813
-14257.4
312744
-14022.9
305784
-13819.6
298938
-13589.3
292188
-13374
285562
-13163.1
279023
-12930.1
272602
-12735.5
266274
-12499.2
260051
-12305
253928
-12078
247895
-11885.3
241959
-11658.7
236116
-11480
230362
-11251
224697
-11085.4
219122
-10862.1
213629
-10704
208222
-10487.6
202896
-10342.4
197657
-10133.4
192497
-9999.59
187424
-9799.27
182426
-9675.6
177508
-9476.13
172671
-9365.21
167898
-9175.08
163215
-9052.31
158597
-8905.08
154035
-8737.99
149573
-8630.38
145147
-8460.85
140810
-8351.36
136528
-8175.06
132312
-8093.86
128163
-7903.71
124070
-7827.41
120046
-7635.16
116074
-7572.72
112169
-7373.45
108306
-7308.29
104525
-7125.79
100763
-7049.31
97104.8
-6885.91
93428.2
-6772.38
89881
-6658.57
86329.5
-6528.02
82841.5
-6396.54
79424.7
-6299.6
76022.5
-6147.26
72693.3
-6064
69400.8
-5921.07
66162.5
-5809.38
62944.9
-5699.63
59808.9
-5579.58
56677.3
-5438.82
53596
-5368.75
50601.6
-5214.9
47551.6
-5080.77
44674
-5038.42
41706.6
-4799.02
38847.7
-4676.88
35888
-4478.8
33048.7
-4390.83
-4317.1
30211.2
654117
-12530.6
641762
-12283.4
629597
-12026.8
617620
-11780.1
605830
-11552.6
594228
-11344.4
582809
-11152.8
571573
-10974
560515
-10809.8
549629
-10675.2
538916
-10557.6
528371
-10436.2
517994
-10305.9
507779
-10165.6
497727
-10021.2
487834
-9868.8
478099
-9716.12
468517
-9549.33
459087
-9377.81
449807
-9192.23
440665
-9011.71
431679
-8839.15
422823
-8663.65
414121
-8504.52
405547
-8345.15
397124
-8195.45
388819
-8053.38
380661
-7923.84
372619
-7799.69
364717
-7687.11
356925
-7573.71
349264
-7474.53
341719
-7362.11
334287
-7265.72
326992
-7162.21
319792
-7057.66
312727
-6958.46
305759
-6851.64
298923
-6753.19
292181
-6632.08
285557
-6539.12
279034
-6406.42
272601
-6303.18
266291
-6188.39
260049
-6063.36
253929
-5957.74
247880
-5836.8
241954
-5732.38
236093
-5618.94
230354
-5512.3
224674
-5405.65
219116
-5303.64
213614
-5202.08
208234
-5107.68
202903
-5011.05
197691
-4921.48
192523
-4831.32
187469
-4745.95
182465
-4671.45
177561
-4572.26
172711
-4515.16
167961
-4425.17
163253
-4343.93
158641
-4293.32
154094
-4191.11
149602
-4138.47
145201
-4059.23
140838
-3988.66
136579
-3916.19
132334
-3848.76
128211
-3780.32
124084
-3701.11
120092
-3642.47
116088
-3568.6
112214
-3500.05
108323
-3417.48
104573
-3375.72
100795
-3271.38
97146
-3236.48
93505.7
-3132.08
89923.6
-3076.47
86423.8
-3028.26
82924
-2896.71
79522.1
-2897.63
76136.7
-2761.9
72803.7
-2730.99
69532.7
-2650.09
66278.3
-2555.01
63101.2
-2522.46
59930.5
-2408.95
56855.3
-2363.61
53747.7
-2261.13
50761.1
-2228.27
47757.4
-2077.03
44801.2
-2082.23
41972
-1969.87
39223.7
-1928.6
36593.2
-1848.24
34015.3
-1812.95
-1636.47
31334.7
654119
16.5872
641767
68.935
629607
133.491
617635
191.967
605850
232.529
594251
253.944
582837
261.087
571606
257.644
560552
244.287
549668
208.727
538956
153.757
528413
107.213
518037
69.4713
507825
47.0917
497778
25.1232
487891
18.3749
478161
14.1309
468583
28.3911
459157
48.2928
449880
85.2199
440748
120.34
431764
144.542
422918
182.657
414219
194.502
405647
226.659
397224
227.54
388924
246.933
380767
232.926
372728
238.856
364822
218.887
357042
206.306
349378
189.881
341849
166.423
334425
158.571
327137
125.873
319947
132.701
312887
101.572
305919
115.895
299074
91.7449
292326
115.927
285688
99.2424
279156
125.084
272729
124.125
266401
139.555
260178
159.767
254055
165.258
248018
199.662
242093
193.132
236235
238.997
230495
227.272
224817
272.328
219259
254.888
213757
299.371
208373
277.047
203039
322.62
197824
293.233
192657
336.348
187598
313.044
182594
331.97
177680
342.346
172840
324.582
168066
348.695
163381
340.8
158743
345.222
154213
338.325
149711
364.256
145315
336.771
140962
363.992
136695
350.597
132462
384.13
128342
339.985
124227
414.158
120231
353.135
116228
434.716
112358
369.73
108479
461.564
104704
398.916
100960
472.677
97263.6
460.109
93658.5
473.038
90059.3
522.697
86533.8
497.278
83073.5
563.572
79629.1
546.734
76263.1
604.099
72931.8
600.336
69638.5
643.161
66409.5
673.999
63209
678.029
60056.6
743.527
56957.1
735.826
53888.3
807.669
50851.5
808.534
47924
850.472
44911.3
930.473
42065.1
876.376
39092.2
1044.24
36287.6
956.399
33331.2
1143.42
1060.74
30634
654119
12564
641768
12419.9
629612
12290.1
617645
12158.9
605865
12012.2
594271
11847.6
582862
11670.3
571635
11484.8
560586
11293.6
549706
11088.8
538996
10864
528455
10648.1
518078
10445.7
507869
10256.8
497818
10075.5
487931
9905.86
478198
9746.62
468622
9604.36
459196
9475.02
449920
9361.03
440795
9245.55
431805
9134.43
422970
9017.82
414264
8899.9
405707
8783.59
397278
8657.18
388987
8537.94
380823
8396.2
372790
8272.58
364883
8125.84
357103
7985.9
349448
7845.19
341910
7703.78
334504
7565.47
327198
7431.39
320025
7305.67
312945
7181.21
305996
7064.99
299137
6950.84
292406
6846.96
285763
6742.06
279241
6647.37
272813
6552.24
266486
6466.39
260268
6377.51
254132
6301.58
248112
6219.33
242162
6143.43
236334
6067.6
230568
5992.32
224924
5916.69
219338
5841.01
213865
5772.09
208454
5688.64
203149
5627.05
197908
5534.54
192762
5481.8
187693
5382.58
182692
5333.33
177783
5251.26
172935
5172.07
168174
5110.32
163482
5032.34
158864
4962.88
154306
4896.82
149844
4825.69
145411
4770.39
141088
4686.82
136786
4652.45
132598
4571.97
128418
4520.39
124361
4470.69
120304
4410.8
116369
4369.3
112427
4311.66
108618
4270.49
104780
4237.56
101082
4170.21
97359.8
4182.37
93755
4077.86
90168.5
4109.16
86632.3
4033.48
83171.2
4024.69
79724.4
3993.54
76358.4
3970.05
73021.9
3936.9
69736.4
3928.62
66488.3
3922.15
63294.4
3871.92
60144.2
3893.74
57024.1
3855.88
53957.6
3874.19
50937
3829.09
47936.1
3851.43
45031.2
3835.41
42034.4
3873.12
39232.2
3846.41
36244.7
3943.89
33492.8
3895.33
3969.88
30583.7
654118
25113
641766
24771.1
629612
24444.7
617649
24122
605873
23787.6
594284
23437.2
582879
23075.5
571656
22707.9
560611
22338.5
549735
21963.9
539026
21573
528486
21188.8
518108
20823.6
507898
20466.8
497844
20128.9
487957
19793.5
478223
19480.4
468646
19181.8
459214
18906.9
449932
18642.4
440797
18381
431807
18123.8
422968
17856.8
414259
17609.8
405699
17342.7
397269
17088
388981
16825.5
380819
16558.4
372790
16301.1
364892
16024
357106
15772.4
349453
15498.3
341905
15251.8
334490
14979.7
327176
14746.1
320000
14481.4
312921
14260.2
305978
14008.4
299124
13804.1
292403
13567.9
285764
13381.2
279251
13160.3
272816
12987.6
266502
12780
260269
12610.7
254143
12427.9
248119
12242.8
242171
12091.6
236344
11894.8
230581
11755.8
224936
11560.8
219350
11427.5
213884
11237.8
208473
11099.4
203179
10921.7
197932
10780.8
192799
10615.7
187724
10456.9
182734
10323.9
177837
10147.7
172987
10022.3
168240
9857.16
163539
9733.46
158929
9572.64
154370
9456.29
149897
9298.94
145478
9188.68
141137
9028.09
136847
8942.63
132653
8766.12
128469
8704.2
124418
8521.46
120355
8473.73
116423
8301.18
112478
8257.07
108669
8079.61
104842
8064.16
101129
7883.36
97434.4
7877.01
93818.4
7693.87
90235.7
7691.86
86713.3
7555.82
83245
7493.03
79807.9
7430.6
76436.3
7341.7
73101.6
7271.6
69794.6
7235.58
66571.7
7145.12
63358.4
7085.19
60205.5
7046.6
57072.5
6988.96
54029.5
6917.17
50950.7
6907.83
47974.9
6827.29
45012.9
6797.42
42138.1
6747.91
39387.3
6597.19
36719.5
6611.67
34173.5
6441.39
6622.72
31520.6
654114
37666.1
641760
37124.4
629606
36598.9
617646
36082.3
605874
35559.5
594288
35023.3
582886
34477.5
571666
33927.7
560625
33379.7
549755
32834
539050
32278
528511
31727.1
518138
31196.7
507930
30675.3
497882
30176.7
487995
29680.6
478264
29211.4
468687
28758.7
459263
28331
449988
27916.9
440860
27509.3
431878
27105.5
423036
26698.7
414337
26309.1
405778
25901.5
397352
25514.3
389066
25111.6
380903
24721.3
372878
24326.1
364975
23927.5
357200
23546.5
349550
23148.7
342023
22779
334612
22390.2
327319
22039.4
320140
21660.2
313073
21327.8
306117
20964.4
299268
20652.3
292530
20306
285898
20013
279375
19684
272954
19408.1
266638
19096.4
260413
18835.4
254297
18544
248264
18275.5
242333
18023.3
236494
17733.3
230744
17505.8
225085
17219.7
219512
17000.9
214031
16719.2
208624
16506
203315
16230.8
198073
16022.2
192936
15753.2
187849
15544
182877
15295.3
177946
15079.5
173122
14846.4
168348
14630.3
163674
14407.7
159041
14205.4
154520
13977.3
150025
13794.2
145638
13575.6
141279
13387.1
137022
13199.4
132797
12991.4
128657
12844.5
124569
12609.5
120539
12504
116580
12260
112669
12167.4
108809
11939.8
105032
11841.8
101269
11646.4
97606.8
11538.8
93935.3
11365.3
90384.6
11242.6
86811.8
11128.6
83342.9
10961.9
79885.5
10888
76503
10724.2
73139.1
10635.5
69851.8
10522.8
66591.2
10405.7
63353.7
10322.7
60211.7
10188.6
57053.2
10147.4
53975.4
9994.95
50903.3
9979.9
47935.3
9795.32
44898.4
9834.34
42046.9
9599.41
39021.4
9622.64
36180.3
9452.86
33143.1
9478.59
9423.53
30342.3
654108
50225.2
641751
49481.5
629595
48754.9
617635
48042.3
605865
47329.5
594281
46607.1
582881
45877.4
571663
45146