/*--------------------------------*- C++ -*----------------------------------*\
| =========                 |                                                 |
| \\      /  F ield         | OpenFOAM: The Open Source CFD Toolbox           |
|  \\    /   O peration     | Version:  2.3.1                                 |
|   \\  /    A nd           | Web:      www.OpenFOAM.org                      |
|    \\/     M anipulation  |                                                 |
\*---------------------------------------------------------------------------*/
FoamFile
{
    version     2.0;
    format      ascii;
    class       surfaceScalarField;
    location    "1000";
    object      phi;
}
// * * * * * * * * * * * * * * * * * * * * * * * * * * * * * * * * * * * * * //

dimensions      [0 3 -1 0 0 0 0];

internalField   nonuniform List<scalar> 
9555
(
320606
-81771.5
94498.8
308291
-79136.5
91451.9
296374
-76586.7
88503.8
284839
-74122.1
85656.7
273680
-71743.3
82902.5
262889
-69455.8
80246.6
252449
-67240
77679.6
242351
-65094.3
75192.1
232582
-63014.3
72783.4
223126
-60994.2
70450.2
213966
-59040
68200.6
205097
-57151.3
66019.5
196510
-55322.2
63909.3
188204
-53565.3
61871.8
180161
-51864
59907.1
172379
-50220.4
58002.7
164852
-48636.8
56163.1
157565
-47083.5
54371.2
150513
-45593.6
52645.5
143689
-44142.5
50966.6
137081
-42746.5
49354.3
130681
-41375.9
47775.9
124484
-40076.2
46272.5
118481
-38785.4
44789.2
112662
-37571.6
43389.9
107029
-36371.3
42004.5
101569
-35228.8
40689
96294.4
-34144.4
39418.9
91175.6
-33052.1
38170.9
86225.1
-32043.7
36994.2
81424.3
-31031.2
35832
76773
-30074.1
34725.4
72269.5
-29162.3
33665.9
67902.8
-28234.5
32601.2
63681.8
-27420.7
31641.6
59567.8
-26528.3
30642.4
55580.8
-25777.4
29764.3
51716.5
-24976.1
28840.4
47960.7
-24265.7
28021.6
44327.8
-23527
27159.8
40793.1
-22904.3
26439.1
37341.7
-22207.1
25658.4
33973.1
-21677.7
25046.3
30633.5
-21037.2
24376.8
27372.1
-20572.7
23834.1
24138.1
-20012.9
23246.9
20941
-19683.2
22880.3
17762.6
-19194.3
22372.7
14566.8
-19039.5
22235.4
-18680.9
21932.3
11315.4
320661
-69099
308402
-66877.7
296537
-64721.9
285057
-62641.5
273953
-60639.4
263213
-58716.3
252821
-56847.3
242765
-55038.5
233029
-53278.8
223605
-51569.8
214479
-49914.3
205650
-48322.2
197101
-46773.2
188831
-45295
180825
-43857.8
173072
-42467.7
165566
-41130.6
158293
-39811.2
151255
-38555.5
144440
-37327.4
137834
-36140.3
131446
-34987.9
125250
-33880.4
119257
-32791.8
113450
-31765
107831
-30752.5
102388
-29785.3
97112.6
-28869.3
92004.7
-27944.1
87053.4
-27092.4
82256.3
-26234
77613.5
-25431.4
73104.9
-24653.6
68737.3
-23866.9
64503.4
-23186.8
60397.4
-22422.3
56415
-21795
52539.7
-21100.8
48792
-20518
45131.3
-19866.3
41570.5
-19343.5
38095.7
-18732.3
34699.1
-18281.1
31375.6
-17713.7
28132.7
-17329.8
24944.3
-16824.5
21761.4
-16500.2
18670.8
-16103.8
15519
-15887.8
-15532.4
12370.5
320707
-56472.3
308488
-54659.5
296664
-52897.4
285220
-51197.6
274149
-49568.3
263437
-48004
253072
-46482.7
243040
-45006.2
233326
-43564.9
223927
-42170.6
214825
-40812.9
206011
-39508.5
197482
-38243.9
189216
-37028.7
181219
-35860.7
173477
-34726.3
165979
-33632.4
158725
-32557.3
151693
-31522.8
144896
-30530.6
138303
-29547.6
131930
-28614.6
125743
-27693.8
119767
-26815.4
113973
-25971.8
108364
-25143.2
102924
-24345.1
97654.9
-23600.1
92562.9
-22852.1
87611.6
-22141.2
82835
-21457.4
78190.7
-20787
73688.8
-20151.8
69333.1
-19511.2
65102.7
-18956.5
61006.4
-18325.9
57023.1
-17811.7
53151.2
-17228.9
49406.7
-16773.5
45740.9
-16200.4
42196.7
-15799.4
38723.6
-15259.2
35357.2
-14914.7
32069.4
-14425.9
28845.3
-14105.8
25712.1
-13691.3
22582.5
-13370.6
19524.9
-13046.2
16415.2
-12778.1
-12448.5
13331.4
320745
-43883.5
308560
-42474.6
296766
-41104.1
285352
-39783
274306
-38522.1
263617
-37315.6
253273
-36138.5
243261
-34994.4
233567
-33871
224186
-32789
215103
-31730.4
206305
-30709.8
197793
-29732.6
189543
-28778.4
181556
-27874.3
173834
-27003.5
166344
-26143.1
159105
-25317.7
152085
-24503.1
145298
-23743.4
138715
-22965.3
132344
-22243.4
126177
-21526.6
120202
-20840.2
114418
-20188.2
108817
-19542
103389
-18917.3
98120.8
-18331.8
93034.6
-17765.9
88083.1
-17189.7
83308.8
-16683.1
78663.7
-16142
74157.4
-15645.5
69810.7
-15164.5
65544.3
-14690.1
61472.4
-14254
57453.8
-13793.2
53606.2
-13381.3
49835.3
-13002.6
46189.4
-12554.6
42636.9
-12246.8
39196.1
-11818.4
35829.7
-11548.3
32532.3
-11128.5
29340.8
-10914.2
26196.4
-10546.9
23078.6
-10252.8
20043.9
-10011.6
17008
-9742.14
-9504.69
14064.2
320773
-31323
308611
-30312.9
296839
-29331.8
285444
-28387.8
274412
-27490.8
263736
-26639.1
253403
-25805.6
243401
-24992.8
233715
-24185
224338
-23411.4
215259
-22651.9
206466
-21916
197957
-21223.8
189716
-20537.4
181733
-19891.6
174013
-19283.5
166526
-18656
159285
-18077.2
152269
-17486.9
145474
-16948
138896
-16387.2
132519
-15866.4
126358
-15366.2
120371
-14853.2
114581
-14397.7
108981
-13941.7
103548
-13484.5
98293.4
-13077.3
93182.3
-12654.8
88256.3
-12263.7
83452.1
-11878.9
78826.2
-11516
74315.6
-11134.9
69968.8
-10817.6
65713.5
-10434.7
61633.5
-10174.1
57633.1
-9792.69
53794.6
-9542.82
50022.2
-9230.23
46394.5
-8926.84
42848.7
-8701
39422.3
-8392.06
36063
-8188.96
32797
-7862.45
29600.2
-7717.49
26515.6
-7462.3
23458.6
-7195.78
20511.1
-7064.06
17554.8
-6785.86
-6651.5
14701.6
320792
-18782
308644
-18165
296883
-17569.9
285497
-17002.2
274472
-16466.1
263797
-15964.2
253469
-15477
243463
-14987.4
233782
-14503.2
224405
-14034.6
215323
-13570.2
206536
-13128.7
198025
-12713
189783
-12294.8
181809
-11918.2
174074
-11548.2
166601
-11183.1
159350
-10826.4
152340
-10476.1
145548
-10156.2
138968
-9807.32
132601
-9499.74
126438
-9202.83
120461
-8876.44
114676
-8612.36
109070
-8335.69
103641
-8055.98
98382.1
-7818.4
93286.5
-7559.15
88343.9
-7321.14
83560
-7094.95
78917
-6873.01
74422.4
-6640.39
70070.5
-6465.74
65843.4
-6207.6
61742.4
-6073.03
57771.7
-5822
53908.9
-5680.02
50168.8
-5490.14
46524.8
-5282.82
43004.1
-5180.34
39551.6
-4939.59
36225.8
-4863.08
32987.6
-4624.27
29774.2
-4504.1
26752
-4440.12
23702.2
-4145.98
20790.8
-4152.62
17924
-3919.09
-3811.16
15083.7
320805
-6253.48
308664
-6024.55
296908
-5813.23
285527
-5621.31
274507
-5446.46
263834
-5290.8
253502
-5145.26
243495
-4980.52
233812
-4819.94
224435
-4658.13
215351
-4485.96
206565
-4342.63
198048
-4196.21
189810
-4056.62
181836
-3944.39
174099
-3810.78
166626
-3710.59
159375
-3575.58
152367
-3467.64
145573
-3362
138992
-3226.26
132627
-3134.96
126446
-3021.84
120486
-2916.83
114693
-2819.3
109082
-2724.55
103670
-2644.08
98391.8
-2539.99
93312
-2479.3
88357.2
-2366.4
83594.2
-2331.9
78934.6
-2213.41
74460.2
-2165.99
70092.2
-2097.73
65865.1
-1980.51
61769.1
-1977.11
57798.1
-1850.95
53934.9
-1816.82
50186.9
-1742.12
46579.2
-1675.16
43008.8
-1609.91
39620.1
-1550.94
36250
-1492.94
33063.6
-1437.89
29916.4
-1356.94
26809.3
-1333.01
23917.4
-1254.01
20971.5
-1206.74
18200.2
-1147.84
-1051.69
15440.8
320809
6270.5
308674
6110.56
296921
5939.57
285543
5757.53
274526
5570.39
263856
5378.97
253522
5189.2
243519
5021.61
233833
4866.86
224457
4717.22
215376
4595.3
206586
4447.79
198069
4320.2
189834
4178.8
181856
4033.73
174128
3916.59
166640
3777.48
159408
3656.93
152390
3549.62
145594
3434.07
139021
3346.79
132658
3228.35
126476
3160.29
120514
3044.56
114723
2972.52
109112
2886.04
103694
2774.2
98427.2
2726.56
93326
2621.95
88407.4
2552.14
83597.8
2477.74
78976.2
2408.12
74474.6
2335.65
70103.5
2273.34
65904.4
2218.65
61777.4
2149.84
57815.9
2110.63
53969.2
2029.82
50193.9
2033.2
46603.7
1915.02
43036
1957.82
39640.1
1844.97
36293.2
1853.94
33060.6
1794.69
29965.2
1738.49
26808.5
1823.71
23924.3
1630.11
20961.4
1756.18
18170.2
1643.39
1656.12
15462.4
320806
18797.8
308675
18241.9
296926
17687.9
285550
17133.6
274537
16583.6
263871
16044.8
253540
15520.1
243542
15020.1
233859
14549.8
224483
14093.3
215410
13668.1
206614
13243.4
198110
12824.4
189870
12419
181892
12011.6
174173
11636
166685
11264.7
159454
10888.8
152441
10561.9
145646
10229.6
139083
9909.63
132704
9607.61
126548
9316.33
120564
9028.26
114791
8745.68
109184
8493.14
103756
8202.22
98499.7
7982.43
93396.3
7725.4
88475.2
7473.16
83667.9
7285.09
79053.4
7022.64
74545.8
6843.26
70186
6633.15
65990.9
6413.67
61856.9
6283.83
57904.9
6062.65
54042.5
5892.25
50301.1
5774.64
46641.6
5574.46
43155.3
5444.13
39687.6
5312.63
36397
5144.6
33111.8
5079.85
29977.3
4873.06
26939.6
4861.39
23930.1
4639.61
21043.6
4642.64
18203.7
4483.3
4389.15
15470.7
320795
31336.1
308661
30376.5
296914
29434.9
285539
28507.9
274528
27594.9
263864
26708.3
253538
25846.6
243542
25016
233864
24227.8
224489
23468.1
215421
22736.6
206629
22034.8
198129
21324.6
189891
20657
181916
19986.6
174199
19352.8
166723
18740.6
159484
18128.6
152478
17567.2
145687
17021.2
139121
16475.1
132751
15977.7
126592
15475.8
120613
15007.3
114839
14519.8
109236
14095.5
103808
13630.5
98552.2
13238.4
93468.7
12808.9
88525.1
12416.7
83755.8
12054.4
79121.6
11656.8
74631.7
11333.3
70278.6
10986.2
66046.5
10645.8
61954.6
10375.8
57981.4
10035.9
54113.5
9760.14
50381.5
9506.66
46738.5
9217.44
43200.8
8981.79
39773.8
8739.63
36403.9
8514.54
33183.8
8299.96
29949.8
8107
26920.3
7890.93
23828.4
7731.51
20925.9
7545.14
17975
7434.14
7180.2
15184
320776
43893.5
308629
42523.5
296875
41188.4
285498
39885.4
274483
38610
263818
37372.8
253493
36172.1
243495
35013.9
233815
33907.9
224443
32839.8
215370
31810.1
206590
30814.7
198085
29829.6
189851
28890.5
181879
27958.9
174157
27074.8
166685
26212.7
159443
25370.1
152439
24571.8
145658
23801.5
139078
23055.7
132723
22332
126550
21648.7
120592
20966
114805
20306.2
109203
19697.8
103774
19059.6
98518.6
18493.6
93433.7
17893.8
88493.5
17357
83717.8
16830
79079.4
16295.2
74586.9
15825.7
70237.4
15335.8
65996.4
14886.7
61914.3
14457.9
57939
14011.1
54064.4
13634.8
50325.2
13245.8
46680
12862.6
43122.4
12539.4
39678.1
12183.9
36309.5
11883.2
33061.7
11547.7
29829.3
11339.4
26740.4
10979.9
23661.3
10810.6
20662.5
10543.9
17717.6
10379
10077.9
14819.9
320747
56480.2
308575
54694.9
296802
52962.2
285407
51279.5
274378
49639.2
263702
48048.9
253368
46506.4
243360
45021.6
233673
43595.2
224293
42219.8
215214
40889.3
206431
39597.2
197921
38339.5
189688
37123.5
181712
35934.7
173991
34796.2
166523
33680.4
159283
32610.7
152279
31575.7
145496
30584.5
138923
29628.6
132559
28695.7
126398
27809.6
120440
26924.4
114652
26093.9
109063
25287.1
103630
24492.7
98393.6
23730
93292.5
22994.8
88369.8
22279.8
83581.9
21617.9
78951.5
20925.6
74454.8
20322.5
70107
19683.6
65875.9
19117.8
61781.6
18552.2
57816.2
17976.6
53923.2
17527.8
50186.1
16983
46526
16522.6
42974.1
16091.3
39501.2
15656.8
36144.4
15240
32813.9
14878.2
29614.5
14538.8
26413.2
14181.1
23314.6
13909.3
20207.8
13650.7
17170.8
13416
13188.1
14060.7
320709
69104.3
308503
66901.2
296698
64767.4
285274
62703.1
274218
60695.4
263516
58750.6
253157
56865.1
243128
55050.8
233424
53299.6
224025
51618.7
214930
49984.3
206130
48397.3
197604
46865.8
189358
45369
181369
43924.1
173636
42529.2
166148
41168.6
158897
39861.7
151876
38596.8
145076
37384.3
138498
36206.6
132121
35072.5
125958
33972.7
119985
32897.2
114201
31878.1
108609
30879.2
103179
29922.3
97941.8
28967.3
92842.2
28094.5
87922
27200
83146
26393.8
78519.6
25552
74032.3
24809.8
69690.2
24025.7
65465
23342.9
61379.2
22638
57402.9
21952.9
53544.2
21386.4
49793.4
20733.8
46151.7
20164.3
42598.4
19644.6
39140.9
19114.3
35767.1
18613.8
32452.1
18193.2
29227.8
17763.1
26045.7
17363.3
22889.7
17065.2
19805.8
16734.6
16709.4
16512.4
16393.5
13504
320663
81774.1
308416
79148.9
296569
76614.7
285107
74164.5
274015
71787.4
263279
69486.7
252887
67257.2
242833
65104.8
233106
63026.9
223694
61030.9
214582
59096.3
205761
57217.8
197220
55406.6
188954
53635
180950
51928.4
173206
50272.6
165702
48673.2
158445
47118.9
151412
45629.5
144607
44189.2
138022
42791.2
131636
41458.6
125462
40146.6
119470
38889.7
113674
37673.6
108063
36490.9
102621
35363.6
97355.6
34233.1
92256.2
33193.9
87318.5
32137.7
82536.6
31175.8
77903.6
30185
73416.1
29297.3
69065.6
28376.2
64850.2
27558.3
60765.3
26722.9
56787.7
25930.5
52928.8
25245.4
49187.8
24474.7
45517.8
23834.4
41987
23175.4
38497.8
22603.5
35133.7
21977.9
31798.2
21528.7
28534.9
21026.4
25282.7
20615.5
22099.8
20248.1
18850.1
19984.3
15715.7
19646.8
19622.3
12486.9
320608
94499.2
308299
91458
296395
88519.1
284881
85678.5
273739
82929
262956
80269.8
252515
77697.8
242410
75210
232635
72801.9
223182
70484
214035
68243
205187
66065.9
196625
63969.1
188335
61924.5
180309
59954.8
172543
58038.7
165017
56199
157731
54405.1
150674
52686.2
143848
51015.1
137240
49399.1
130849
47850.2
124658
46337.6
118667
44880.6
112865
43475
107251
42105.5
101815
40799.6
96538.8
39508.9
91436.1
38296.6
86494
37079.8
81706
35963.7
77071.8
34819.2
72580.7
33788.4
68224.2
32732.7
63993.7
31788.8
59903
30813.6
55928
29905.5
52095.4
29078
48353.9
28216.3
44696.3
27491.9
41159.3
26712.4
37690.7
26072.1
34326.2
25342.4
31043.9
24811
27843.6
24226.8
24642.6
23816.5
21466.9
23423.8
18203.3
23247.8
14852
22998.1
23049.3
11425
-579.123
-94827.2
95406.3
-1181.23
-91708.4
92310.5
-1745.23
-88750.9
89314.9
-2287.96
-85867.6
86410.4
-2807.07
-83089.5
83608.6
-3308.77
-80398.8
80900.5
-3790.4
-77793.8
78275.4
-4253.94
-75288.4
75752
-4707.55
-72839.3
73293
-5137.92
-70491.7
70922
-5547.72
-68218
68627.8
-5944.25
-66016
66412.5
-6325
-63882.4
64263.2
-6687.49
-61827.6
62190.1
-7034.06
-59839.6
60186.2
-7369.42
-57903.8
58239.2
-7684.24
-56043.7
56358.5
-7981.68
-54252
54549.4
-8267.3
-52509.3
52794.9
-8537.39
-50822.7
51092.8
-8792.15
-49206.5
49461.3
-9032.28
-47633
47873.2
-9256.79
-46124.7
46349.2
-9473.34
-44659.1
44875.7
-9680.05
-43252
43458.7
-9883.67
-41883.5
42087.1
-10084.1
-40567.4
40767.8
-10277.8
-39277.5
39471.2
-10451.9
-38033.3
38207.4
-10590.6
-36836.4
36975.1
-10689.3
-35711.7
35810.4
-10743.2
-34638
34691.9
-10768.2
-33647.1
33672.2
-10788.2
-32687.6
32707.6
-10789.5
-31827.6
31828.9
-10821.8
-31022.7
31055
-10910.1
-30220.9
30309.3
-11013.9
-29506.3
29610
-11180
-28818.8
28984.8
-11461.4
-28166.4
28447.8
-11809.2
-27481.3
27829.2
-12231
-26764.9
27186.6
-12794.7
-26088.8
26652.5
-13317
-25283.6
25806
-13727.6
-24512.9
24923.5
-14000.6
-23622.4
23895.4
-13984.7
-22833.9
22818
-13676.3
-22071
21762.6
-13151.6
-21730.8
21206.1
-21561.9
21071.7
-12661.3
-542.948
-94284.2
-1058.26
-91193.1
-1562.98
-88246.2
-2029.22
-85401.4
-2483.33
-82635.4
-2916.48
-79965.7
-3332.46
-77377.8
-3740.3
-74880.6
-4129.76
-72449.9
-4497.32
-70124.1
-4852.07
-67863.2
-5195.39
-65672.6
-5521.93
-63555.9
-5833.08
-61516.5
-6134.1
-59538.6
-6416.09
-57621.8
-6675.78
-55784
-6929.52
-53998.2
-7173.4
-52265.4
-7397.37
-50598.8
-7611.74
-48992.1
-7814.61
-47430.2
-8005.01
-45934.3
-8189.72
-44474.4
-8362.94
-43078.7
-8529.15
-41717.3
-8684.87
-40411.7
-8823
-39139.3
-8928.12
-37928.2
-8991.47
-36773
-9030.85
-35672.3
-9044.76
-34624.1
-9048.2
-33643.7
-9070.36
-32665.5
-9120.81
-31777.2
-9216.57
-30927
-9362.79
-30074.7
-9563.96
-29305.1
-9832.69
-28550.1
-10184.5
-27814.7
-10574.9
-27090.8
-10979.9
-26360
-11403.8
-25664.8
-11738.4
-24949
-11983.5
-24267.8
-12097.1
-23508.9
-12022.5
-22908.4
-11843.4
-22250.1
-11650.8
-21923.4
-21717.4
-11495.3
-462.383
-93821.8
-891.178
-90764.3
-1307.88
-87829.5
-1709.53
-84999.7
-2103.52
-82241.4
-2479.03
-79590.2
-2845.09
-77011.7
-3202.04
-74523.7
-3530.95
-72121
-3843.27
-69811.8
-4146.71
-67559.8
-4437.35
-65382
-4707.69
-63285.6
-4972.27
-61251.9
-5226.54
-59284.3
-5459.08
-57389.3
-5682.76
-55560.3
-5905.8
-53775.2
-6112.62
-52058.6
-6302.86
-50408.5
-6489.82
-48805.2
-6664.44
-47255.5
-6830.79
-45768
-6989.23
-44316
-7137.25
-42930.7
-7274.15
-41580.4
-7396.4
-40289.4
-7502.5
-39033.2
-7581.12
-37849.6
-7642.81
-36711.3
-7704.02
-35611.1
-7773.52
-34554.6
-7857.89
-33559.3
-7956
-32567.4
-8085.19
-31648
-8239.61
-30772.5
-8403.2
-29911.1
-8583.23
-29125.1
-8777.47
-28355.8
-9001.37
-27590.8
-9241.54
-26850.6
-9465.62
-26135.9
-9704.91
-25425.5
-9925.73
-24728.2
-10100.8
-24092.7
-10207.7
-23402
-10219.6
-22896.6
-10132.6
-22337.1
-10003.5
-22052.5
-21775.5
-9945.39
-393.304
-93428.5
-737.494
-90420.1
-1078.64
-87488.3
-1416.44
-84661.9
-1744.96
-81912.9
-2056.77
-79278.4
-2357.3
-76711.2
-2640.92
-74240
-2901.92
-71860
-3158.38
-69555.3
-3407.82
-67310.3
-3642.86
-65147
-3864.07
-63064.4
-4076.96
-61039
-4275.86
-59085.4
-4460.82
-57204.3
-4643.1
-55378
-4818.83
-53599.5
-4975.46
-51901.9
-5125.03
-50259
-5270.74
-48659.5
-5402.45
-47123.8
-5529.97
-45640.4
-5647.7
-44198.2
-5755.69
-42822.7
-5851.38
-41484.7
-5936.22
-40204.6
-6011.56
-38957.9
-6079.4
-37781.7
-6155.24
-36635.5
-6232.88
-35533.4
-6323.33
-34464.1
-6432.12
-33450.5
-6527.41
-32472.1
-6623.38
-31552
-6734.78
-30661.1
-6855.4
-29790.5
-7019.5
-28961
-7207.44
-28167.9
-7424.79
-27373.4
-7656.76
-26618.7
-7874.39
-25918.3
-8074.12
-25225.8
-8235.02
-24567.3
-8381.4
-23946.3
-8456.36
-23327
-8472.23
-22880.7
-8422.79
-22386.5
-8359.48
-22115.8
-21779.7
-8355.3
-299.939
-93128.6
-578.109
-90141.9
-849.156
-87217.3
-1122.61
-84388.5
-1375.18
-81660.3
-1620.71
-79032.8
-1853.67
-76478.2
-2067.44
-74026.3
-2270.24
-71657.2
-2480.12
-69345.4
-2678.7
-67111.8
-2860.71
-64965
-3038.15
-62886.9
-3204.11
-60873.1
-3355.07
-58934.5
-3507.43
-57052
-3657.08
-55228.4
-3788.28
-53468.3
-3906.95
-51783.3
-4032.21
-50133.7
-4147.27
-48544.4
-4254.3
-47016.8
-4357.17
-45537.6
-4450.68
-44104.7
-4538.98
-42734.4
-4620.84
-41402.8
-4699.71
-40125.7
-4768.35
-38889.3
-4839.72
-37710.4
-4927.7
-36547.5
-5000.16
-35461
-5071.27
-34393
-5161.14
-33360.7
-5247.82
-32385.4
-5353.6
-31446.2
-5493.27
-30521.5
-5634.78
-29649
-5787.58
-28808.2
-5927.93
-28027.5
-6051.18
-27250.2
-6177.08
-26492.8
-6292.04
-25803.3
-6376.43
-25141.4
-6429.14
-24514.6
-6500.19
-23875.2
-6538.15
-23289.1
-6597.03
-22821.8
-6606.78
-22376.8
-6605.67
-22116.9
-21785.9
-6599.43
-216.507
-92912.1
-448.479
-89910
-664.473
-87001.3
-858.759
-84194.2
-1037.81
-81481.3
-1212.94
-78857.7
-1375.29
-76315.9
-1526.37
-73875.2
-1684.54
-71499
-1840.76
-69189.2
-1972.88
-66979.7
-2096.45
-64841.4
-2221.75
-62761.6
-2337.48
-60757.3
-2443.04
-58828.9
-2550.6
-56944.4
-2650.55
-55128.4
-2733.44
-53385.4
-2817.31
-51699.4
-2902.86
-50048.1
-2975.57
-48471.7
-3048.6
-46943.8
-3115.09
-45471.1
-3176.34
-44043.5
-3233.54
-42677.2
-3293.96
-41342.4
-3356.59
-40063.1
-3408.34
-38837.5
-3461.61
-37657.1
-3527.52
-36481.6
-3599.77
-35388.7
-3674.4
-34318.4
-3763.65
-33271.4
-3853.72
-32295.3
-3939.79
-31360.1
-4028.31
-30433
-4096.36
-29580.9
-4155.2
-28749.3
-4234.04
-27948.7
-4323.23
-27161
-4422.8
-26393.2
-4527.98
-25698.1
-4635.27
-25034.1
-4711.19
-24438.6
-4805.98
-23780.4
-4845.31
-23249.8
-4859.08
-22808.1
-4828.32
-22407.5
-4835.6
-22109.7
-21751.2
-4870.39
-140.943
-92771.1
-304.24
-89746.7
-449.01
-86856.5
-573.119
-84070.1
-693.973
-81360.4
-809.444
-78742.2
-908.026
-76217.3
-1012.96
-73770.2
-1122.69
-71389.3
-1208.96
-69103
-1284.71
-66903.9
-1368.17
-64757.9
-1443.67
-62686.1
-1510.98
-60690
-1581.73
-58758.2
-1648.39
-56877.8
-1700.61
-55076.2
-1755.5
-53330.5
-1820.39
-51634.5
-1873.06
-49995.5
-1918.31
-48426.5
-1966.36
-46895.7
-2011.57
-45425.9
-2056.41
-43998.6
-2099.04
-42634.6
-2141.54
-41299.9
-2180.16
-40024.5
-2227.33
-38790.3
-2279.57
-37604.9
-2324.1
-36437.1
-2383.13
-35329.7
-2441.77
-34259.7
-2477.29
-33235.9
-2513.94
-32258.7
-2554.68
-31319.4
-2606.32
-30381.3
-2666.2
-29521.1
-2740.91
-28674.6
-2851.53
-27838.1
-2942.49
-27070
-3014.12
-26321.6
-3044.45
-25667.8
-3079.99
-24998.6
-3110.38
-24408.3
-3115.32
-23775.5
-3052.61
-23312.5
-3057.12
-22803.5
-3049.6
-22415
-3046.05
-22113.2
-21844.6
-2952.6
-93.8704
-92677.3
-161.953
-89678.6
-227.781
-86790.7
-289.452
-84008.4
-351.809
-81298
-404.211
-78689.8
-453.275
-76168.2
-509.172
-73714.3
-543.378
-71355.1
-562.458
-69083.9
-595.665
-66870.7
-628.907
-64724.7
-646.473
-62668.6
-665.771
-60670.7
-693.542
-58730.4
-710.451
-56860.9
-719.165
-55067.5
-738.333
-53311.3
-754.445
-51618.4
-761.496
-49988.4
-773.921
-48414
-785.082
-46884.6
-794.271
-45416.7
-804.288
-43988.6
-820.244
-42618.6
-831.43
-41288.7
-836.115
-40019.8
-867.832
-38758.6
-911.287
-37561.4
-928.842
-36419.5
-941.972
-35316.6
-967.212
-34234.5
-979.496
-33223.6
-1019.64
-32218.5
-1074.19
-31264.9
-1121.19
-30334.3
-1163.71
-29478.5
-1193.75
-28644.6
-1214.16
-27817.7
-1202.33
-27081.8
-1215.67
-26308.3
-1215.95
-25667.5
-1227.92
-24986.6
-1263.46
-24372.7
-1284.82
-23754.2
-1312.5
-23284.8
-1367.77
-22748.3
-1279.48
-22503.3
-1315.93
-22076.8
-21981.5
-1179.03
-25.4923
-92651.8
-8.65613
-89695.4
1.31371
-86800.7
2.7713
-84009.9
11.6249
-81306.9
25.9466
-78704.2
27.5583
-76169.8
44.0965
-73730.9
73.2913
-71384.3
91.6918
-69102.3
105.926
-66884.9
132.16
-64750.9
158.035
-62694.4
175.032
-60687.7
198.059
-58753.4
227.565
-56890.4
247.06
-55087
262.847
-53327.1
287.146
-51642.7
307.663
-50008.9
320.96
-48427.3
336.005
-46899.6
351.968
-45432.6
363.866
-44000.5
370.143
-42624.9
373.347
-41291.9
376.536
-40023
384.112
-38766.2
392.455
-37569.8
401.957
-36429
405.865
-35320.5
393.534
-34222.2
391.359
-33221.4
378.049
-32205.2
375.048
-31261.9
392.084
-30351.4
396.262
-29482.7
385.76
-28634.1
358.607
-27790.5
332.388
-27055.6
285.573
-26261.4
251.09
-25633
227.665
-24963.2
232.62
-24377.7
259.235
-23780.8
320.403
-23346
357.149
-22785
477.404
-22623.6
507.902
-22107.3
-22138.4
664.83
69.8319
-92721.6
132.977
-89758.6
207.302
-86875
283.44
-84086
371.461
-81394.9
452.845
-78785.5
539.19
-76256.2
632.234
-73823.9
709.989
-71462
775.98
-69168.3
858.631
-66967.6
943.378
-64835.7
1013.12
-62764.2
1082.6
-60757.2
1165.18
-58836
1240.08
-56965.3
1304.19
-55151.1
1372.86
-53395.8
1438.78
-51708.6
1497.84
-50068
1559.5
-48489
1617.58
-46957.7
1669.75
-45484.8
1718.52
-44049.3
1772.81
-42679.2
1813.56
-41332.7
1837.88
-40047.3
1886.69
-38815
1938.21
-37621.3
1959.48
-36450.3
1977.19
-35338.2
1995.96
-34240.9
2022.13
-33247.6
2043.51
-32226.6
2048.05
-31266.4
2047.28
-30350.6
2021.92
-29457.4
2005.76
-28617.9
1986.13
-27770.9
1983.41
-27052.9
2035.54
-26313.6
2065.04
-25662.5
2106.77
-25004.9
2099.72
-24370.6
2110.26
-23791.3
2094.31
-23330
2136.95
-22827.7
2153.72
-22640.3
2279.36
-22232.9
-22151.7
2292.58
174.078
-92895.7
318.969
-89903.5
471.109
-87027.1
630.65
-84245.6
781.617
-81545.9
930.307
-78934.2
1090.24
-76416.1
1240.52
-73974.2
1377.76
-71599.3
1518.18
-69308.7
1655.92
-67105.3
1780.64
-64960.4
1900.98
-62884.5
2027.87
-60884.1
2148.27
-58956.4
2256.38
-57073.4
2363.78
-55258.5
2470.73
-53502.7
2572.72
-51810.6
2670.42
-50165.7
2764.68
-48583.2
2852.38
-47045.4
2934.24
-45566.7
3013.65
-44128.7
3094.31
-42759.9
3174.65
-41413
3239.89
-40112.5
3299.16
-38874.3
3357.72
-37679.8
3397.94
-36490.5
3459.31
-35399.6
3518.56
-34300.2
3546.68
-33275.7
3563.18
-32243.1
3577.23
-31280.5
3604.13
-30377.5
3626.31
-29479.5
3665.18
-28656.8
3702.7
-27808.4
3719.78
-27070
3738.2
-26332
3699.33
-25623.7
3683.59
-24989.2
3656.96
-24344
3678.28
-23812.6
3718.43
-23370.2
3796.74
-22906
3832.9
-22676.5
3969.51
-22369.5
-22202.1
4019.98
256.083
-93151.8
514.024
-90161.4
757.193
-87270.3
991.233
-84479.6
1215.74
-81770.4
1440.14
-79158.6
1653.64
-76629.6
1856.34
-74176.9
2066.6
-71809.5
2276.82
-69518.9
2468.54
-67297
2650.25
-65142.1
2838.35
-63072.6
3021.93
-61067.7
3186.12
-59120.6
3343.24
-57230.5
3501.43
-55416.7
3653.85
-53655.1
3801.78
-51958.6
3944.04
-50308
4078.82
-48718
4208.89
-47175.4
4336.28
-45694.1
4458.32
-44250.7
4564.39
-42865.9
4676.72
-41525.4
4792.41
-40228.2
4880.3
-38962.2
4968.39
-37767.9
5049.51
-36571.6
5124.65
-35474.7
5188.26
-34363.8
5222.56
-33310
5282.65
-32303.2
5350.89
-31348.7
5409.11
-30435.7
5436.61
-29507
5438.12
-28658.3
5462.44
-27832.7
5454.95
-27062.5
5474.38
-26351.4
5462.92
-25612.2
5495.92
-25022.2
5531.06
-24379.1
5569.3
-23850.9
5600.63
-23401.5
5626.65
-22932
5585.93
-22635.8
5664.01
-22447.6
-22197.2
5659.1
353.646
-93505.4
704.74
-90512.5
1041.42
-87607
1358.03
-84796.2
1668.83
-82081.2
1964.25
-79454
2238.98
-76904.4
2504.13
-74442.1
2766.64
-72072
3019.8
-69772.1
3266.47
-67543.7
3511.48
-65387.1
3749.75
-63310.9
3972.12
-61290
4184.82
-59333.3
4392.81
-57438.5
4593.93
-55617.8
4785.23
-53846.4
4967.16
-52140.5
5139.77
-50480.6
5305.22
-48883.5
5468.11
-47338.3
5621.95
-45847.9
5770.92
-44399.7
5908.55
-43003.6
6032.67
-41649.5
6169.02
-40364.5
6286.2
-39079.4
6404.69
-37886.4
6524.91
-36691.9
6614.85
-35564.6
6711.59
-34460.5
6800.01
-33398.4
6902.61
-32405.8
6975.45
-31421.5
7009.7
-30470
7057.98
-29555.3
7087.52
-28687.8
7157.46
-27902.7
7186.06
-27091.1
7238.62
-26404
7259.17
-25632.7
7260.79
-25023.8
7245.37
-24363.7
7217.67
-23823.2
7181.08
-23364.9
7190.39
-22941.3
7164.13
-22609.5
7181.72
-22465.2
-22236.8
7221.27
453.996
-93959.4
882.134
-90940.6
1291.12
-88016
1684.44
-85189.5
2063.58
-82460.3
2426.85
-79817.3
2782.23
-77259.7
3126.6
-74786.4
3447.75
-72393.2
3753.81
-70078.1
4057.52
-67847.4
4354.55
-65684.1
4637.41
-63593.7
4909.85
-61562.5
5181.73
-59605.1
5448.14
-57704.9
5699.8
-55869.5
5940.68
-54087.3
6169.5
-52369.3
6391.5
-50702.6
6602.39
-49094.4
6802.79
-47538.7
6994.62
-46039.8
7172.44
-44577.5
7354.93
-43186
7514.08
-41808.6
7669.79
-40520.3
7822.06
-39231.6
7953.81
-38018.2
8096.3
-36834.4
8212.37
-35680.7
8343.49
-34591.7
8464.77
-33519.7
8554.51
-32495.5
8635.77
-31502.8
8699.63
-30533.8
8808.93
-29664.6
8884.14
-28763
8953.8
-27972.3
8980.23
-27117.5
8981.54
-26405.3
8969.09
-25620.3
8953.56
-25008.3
8948.17
-24358.3
8951.81
-23826.8
8924.32
-23337.4
8947.97
-22965
8871.62
-22533.2
8813.41
-22407
-22132.1
8708.72
539.378
1050.62
1538.47
2005.6
2447.74
2877.02
3296.85
3702.54
4092.78
4464.9
4818.03
5153.41
5469
5778.28
6080.21
6378
6671.63
6955.52
7231.72
7495.7
7755.6
7992.78
8225.56
8437.27
8641.18
8837.03
9005.78
9193.01
9345.76
9505.62
9656.89
9790.6
9936.77
10042.5
10181.2
10289.8
10389.5
10466.8
10516.1
10558.4
10592.2
10630.3
10668.4
10686.9
10694.2
10603.7
10519
10358.5
10186.9
9987.16
10251.5
18909.7
-8089.56
12455.7
19001.9
14631.3
19587
16706.4
20743
18672.3
21929.4
20542
23053.7
22341.2
24006.8
24182.6
24811.1
25988.8
25380.4
27828.6
25989.4
29766.5
26509.9
31792.2
26959.2
33933.6
27468.6
36194.2
28048.7
38557.4
28691.8
41034.6
29351.6
43647.4
30094.8
46374
30945.6
49200.8
31865.2
52129.5
32881.6
55148.3
33956.3
58261.2
35094.5
61468.7
36263.6
64767.2
37469.4
68158.8
38695.5
71659.5
39958
75276.9
41258.2
79019
42607.1
82891.6
44000.6
86895.4
45457.5
91031.9
46956.3
95311.2
48515.6
99729.9
50130.8
104294
51794.5
109013
53519.8
113890
55309.9
118923
57156.4
124122
59064
129497
61038
135050
63075.1
140788
65183.7
146720
67360.9
152852
69620.3
159182
71945.3
165730
74352.3
172497
76841.6
179496
79411.6
186741
82069.5
194224
84827.4
87677.4
201953
10689
16582.5
-8361.77
12978.2
16712.7
15214.3
17351
17339.5
18617.7
19396.7
19872.3
21305.2
21145.2
23077.6
22234.4
24829.9
23058.8
26542.7
23667.6
28327.2
24205
30217.1
24619.9
32185.9
24990.4
34223.5
25431.1
36410.8
25861.3
38787.9
26314.8
41295.3
26844.3
43906.9
27483.2
46630
28222.5
49462.3
29032.9
52404.8
29939.1
55442
30919.1
58573.5
31963
61794.2
33042.9
65104
34159.7
68502.8
35296.7
72000.8
36459.9
75607.6
37651.5
79339.5
38875.1
83202.8
40137.3
87198.6
41461.7
91326.1
42828.9
95596.9
44244.7
100010
45717.4
104566
47238.5
109273
48812.9
114139
50444.4
119166
52128.7
124359
53871.3
129725
55672.2
135268
57532.5
140993
59458.2
146909
61444.9
153029
63500.7
159348
65625.6
165878
67822.5
172627
70093.2
179597
72441.7
186800
74866
194254
77373.5
79969.8
201961
10760.5
14111.9
-8289.98
13346.5
14126.7
15834.1
14863.4
18130.9
16320.9
20199.4
17803.8
22102.1
19242.5
23856.4
20480.1
25583.7
21331.5
27282.6
21968.7
28971.5
22516.1
30752.6
22838.8
32653.7
23089.3
34669.1
23415.7
36771.8
23758.6
38991.1
24095.5
41386.9
24448.4
43989.2
24880.9
46762.7
25449.1
49650.1
26145.4
52641.7
26947.5
55722.3
27838.5
58878
28807.3
62107.2
29813.7
65420.9
30846
68817.7
31899.9
72302.2
32975.3
75887.5
34066.2
79597.4
35165.2
83447.6
36287.1
87443
37466.2
91576
38695.9
95849.4
39971.4
100264
41303
104818
42683.8
109521
44110
114378
45587.3
119395
47112.4
124579
48686.6
129937
50314.4
135473
51996.7
141192
53738.8
147098
55539.2
153200
57398.9
159506
59319.7
166022
61306.7
172754
63360.9
179711
65484.7
186895
67681.4
194320
69949.1
72291
201999
10690.9
11541.6
-8120.56
13410.9
11406.7
16157.6
12116.7
18784.6
13693.8
21115.2
15473.2
23071.1
17286.6
24756.7
18794.5
26381.7
19706.5
27963.7
20386.8
29570.4
20909.3
31242.8
21166.4
32994.4
21337.7
34855.8
21554.2
36866.1
21748.4
39065.3
21896.3
41439.5
22074.1
43986
22334.4
46705.6
22729.5
49589.1
23261.9
52628.4
23908.2
55786.2
24680.7
59038
25555.6
62354.1
26497.5
65720.8
27479.4
69139.6
28481.1
72627.6
29487.4
76205.4
30488.3
79886.5
31484.1
83691.5
32482.1
87651.4
33506.4
91769.8
34577.4
96040.6
35700.6
100459
36884.6
105019
38123.9
109723
39405.8
114579
40731.1
119594
42097.4
124774
43507
130126
44962.5
135656
46466.8
141372
48023.1
147277
49633.8
153373
51303.1
159665
53027.4
166165
54807.2
172882
56643
179825
58542.4
187001
60505.3
194413
62537.3
64637.1
202067
10737.9
8736.82
-7933.1
13820.3
8324.22
16860.4
9076.64
19674.4
10879.9
22098.6
13049
24158.5
15226.7
25911
17042.1
27447.3
18170.1
28853.8
18980.3
30244.4
19518.7
31671
19739.9
33247.9
19760.8
35005.3
19796.8
36935.9
19817.8
38998.7
19833.4
41246
19826.9
43742.9
19837.5
46486.4
19986
49454.3
20294
52598.2
20764.2
55863.7
21415.2
59204.1
22215.2
62590.1
23111.5
66008.1
24061.4
69455.6
25033.5
72940.1
26002.9
76489.6
26938.7
80138.7
27835.1
83910.6
28710.2
87831.7
29585.3
91919
30490.1
96179.6
31440.1
100613
32451.1
105200
33537.2
109923
34682.8
114785
35869.1
119794
37087.9
124963
38337.8
130307
39618.9
135832
40941.8
141541
42313.7
147439
43736.4
153534
45207.9
159832
46729.5
166330
48308.9
173033
49939.6
179958
51617.9
187117
53345.9
194517
55137.9
56987.8
202166
9536.09
5772.32
-6571.59
13047
4813.31
17113.2
5010.4
20981.3
7011.84
23898.6
10131.7
25799.9
13325.4
27256.5
15585.4
28549.7
16876.9
29836.5
17693.5
31082.5
18272.7
32350
18472.4
33703.3
18407.5
35175.9
18324.2
36781.5
18212.2
38633.7
17981.3
40802.3
17658.2
43205.1
17434.7
45831.9
17359.2