/*--------------------------------*- C++ -*----------------------------------*\
| =========                 |                                                 |
| \\      /  F ield         | OpenFOAM: The Open Source CFD Toolbox           |
|  \\    /   O peration     | Version:  2.3.1                                 |
|   \\  /    A nd           | Web:      www.OpenFOAM.org                      |
|    \\/     M anipulation  |                                                 |
\*---------------------------------------------------------------------------*/
FoamFile
{
    version     2.0;
    format      ascii;
    class       volVectorField;
    location    "1000";
    object      U;
}
// * * * * * * * * * * * * * * * * * * * * * * * * * * * * * * * * * * * * * //

dimensions      [0 1 -1 0 0 0 0];

internalField   nonuniform List<vector> 
19300
(
(40 -6.21584e-05 2.18503e-19)
(40.0001 -0.000310622 0)
(40.0001 -0.000428372 2.36636e-19)
(40.0003 -0.000658052 1.14344e-19)
(40.0001 -0.00089141 1.26106e-19)
(40.0003 -0.00132417 -2.54124e-19)
(40.0001 -0.00189705 -1.19022e-19)
(40.0002 -0.0033544 -1.80423e-20)
(40.0002 -0.00552627 -1.28361e-19)
(40.0007 -0.00981574 -1.51517e-19)
(40.0004 -0.0146166 -1.76687e-19)
(40.0017 -0.0214755 -2.03877e-20)
(40.0019 -0.0281387 2.11252e-20)
(40.004 -0.0361188 3.72738e-19)
(40.005 -0.0438869 -2.16181e-20)
(40.0075 -0.0504761 1.65397e-19)
(40.0092 -0.0563179 2.43751e-20)
(40.0117 -0.0623808 -1.52432e-19)
(40.0132 -0.0666474 -5.2411e-20)
(40.0164 -0.0721799 2.16965e-19)
(40.017 -0.0756517 -1.13395e-19)
(40.0213 -0.0781344 1.16019e-19)
(40.0219 -0.0814164 6.09277e-20)
(40.0255 -0.0844824 -3.15894e-19)
(40.0264 -0.0879306 0)
(40.027 -0.0927812 1.35556e-19)
(40.0286 -0.0972146 0)
(40.0285 -0.106438 0)
(40.0284 -0.113729 7.64096e-20)
(40.0306 -0.12514 -7.92349e-20)
(40.0285 -0.13711 0)
(40.0323 -0.150204 -1.72527e-19)
(40.031 -0.164123 -1.79548e-19)
(40.0312 -0.178049 -1.87e-19)
(40.0358 -0.193481 -2.91562e-19)
(40.0305 -0.206952 1.00372e-19)
(40.038 -0.221171 2.11399e-19)
(40.0332 -0.234433 -1.12523e-19)
(40.0388 -0.247845 3.43276e-19)
(40.0358 -0.259162 0)
(40.0383 -0.271545 0)
(40.0379 -0.282771 0)
(40.036 -0.293167 0)
(40.0388 -0.305012 -8.66603e-22)
(40.0319 -0.314041 -1.44993e-19)
(40.0362 -0.326795 -1.50566e-19)
(40.0283 -0.338308 -1.61104e-19)
(40.0295 -0.350007 3.36999e-19)
(40.0245 -0.364272 3.53569e-19)
(40.0207 -0.372909 -1.8285e-19)
(40.0185 -0.392901 3.85151e-19)
(40.0105 -0.403757 2.02215e-19)
(40.0138 -0.423811 -2.09895e-19)
(39.9978 -0.438192 -4.4098e-19)
(40.0039 -0.45986 -2.25925e-19)
(39.9845 -0.477491 6.2657e-21)
(39.9903 -0.503118 -3.85738e-19)
(39.9699 -0.52935 1.39869e-19)
(39.9743 -0.556289 0)
(39.9518 -0.591008 0)
(39.9587 -0.623412 0)
(39.9309 -0.65635 3.29684e-19)
(39.9407 -0.699552 3.36668e-19)
(39.907 -0.731792 3.63625e-19)
(39.9181 -0.78259 2.25574e-21)
(39.8823 -0.816976 -1.93564e-19)
(39.8861 -0.87514 -2.09242e-19)
(39.8614 -0.907187 -2.1731e-19)
(39.8524 -0.975563 4.6881e-19)
(39.8364 -1.00955 2.41377e-19)
(39.8243 -1.08362 -2.67694e-19)
(39.8004 -1.1265 0)
(39.8003 -1.2021 2.83896e-19)
(39.7499 -1.25645 6.27854e-19)
(39.7684 -1.34189 -6.61532e-19)
(39.7027 -1.39862 7.04348e-19)
(39.7058 -1.49709 -3.65106e-19)
(39.6491 -1.56986 0)
(39.6329 -1.67242 -4.13285e-19)
(39.5746 -1.77513 -4.37996e-19)
(39.5399 -1.87679 -4.90566e-19)
(39.5034 -2.01521 -1.00737e-18)
(39.4288 -2.11918 0)
(39.4234 -2.2706 -5.77188e-19)
(39.3258 -2.4251 6.03886e-19)
(39.3242 -2.55134 0)
(39.2283 -2.78004 2.28243e-20)
(39.1978 -2.91781 -7.20014e-19)
(39.1244 -3.20403 -8.01043e-19)
(39.0667 -3.38085 -5.96201e-20)
(38.9505 -3.72686 0)
(38.9062 -4.00364 9.98828e-19)
(38.7592 -4.40566 5.86183e-19)
(38.6724 -4.79263 -5.80762e-20)
(38.5105 -5.32784 -7.02183e-19)
(38.3609 -5.74572 1.2683e-18)
(38.195 -6.47856 -1.5446e-18)
(38.0172 -6.98006 1.8489e-18)
(37.6589 -7.8229 -1.37797e-18)
(37.5211 -8.73167 0)
(40.0002 -0.000331398 0)
(40.0004 -0.000735557 -1.12027e-19)
(40.0006 -0.000873406 -2.42134e-19)
(40.0009 -0.00138976 -7.67784e-21)
(40.0005 -0.00183248 7.97153e-21)
(40.0004 -0.00283238 2.74016e-19)
(39.9997 -0.0046607 -8.61264e-21)
(40 -0.00815252 -5.95463e-22)
(39.9999 -0.0135635 1.47622e-19)
(40.0008 -0.0204148 0)
(40.0013 -0.028252 1.59431e-19)
(40.0037 -0.0368639 -1.65317e-19)
(40.0045 -0.0448761 2.13733e-20)
(40.0075 -0.0529924 -1.98786e-19)
(40.0082 -0.0603965 -1.6022e-19)
(40.0114 -0.0665423 -2.13877e-19)
(40.0128 -0.072206 2.47571e-20)
(40.0156 -0.0766865 1.789e-19)
(40.0171 -0.0810375 0)
(40.0197 -0.0855174 -5.5338e-20)
(40.0203 -0.0891442 1.14226e-19)
(40.0233 -0.0929673 1.78189e-19)
(40.0231 -0.0959085 0)
(40.025 -0.0997228 1.27966e-19)
(40.0252 -0.102686 1.34276e-19)
(40.0252 -0.10775 0)
(40.0266 -0.11509 0)
(40.0265 -0.125164 -7.49558e-20)
(40.0265 -0.135114 7.77024e-20)
(40.0292 -0.149747 0)
(40.0272 -0.162519 2.53737e-19)
(40.0315 -0.178424 1.74226e-19)
(40.0296 -0.191772 3.65188e-19)
(40.0311 -0.208065 9.36592e-20)
(40.0329 -0.223284 9.71839e-20)
(40.029 -0.235832 2.06117e-19)
(40.0347 -0.252052 -4.28265e-19)
(40.0281 -0.264491 3.34261e-19)
(40.033 -0.27866 -4.6812e-19)
(40.0263 -0.290248 -1.23388e-19)
(40.0303 -0.303973 0)
(40.023 -0.315557 2.68129e-19)
(40.0247 -0.326601 -2.79122e-19)
(40.019 -0.340507 -1.7668e-21)
(40.0147 -0.349883 1.5022e-19)
(40.0161 -0.365454 -3.14304e-19)
(40.0039 -0.376991 -1.18887e-21)
(40.0064 -0.390064 -1.72686e-19)
(39.9954 -0.405144 1.22512e-21)
(39.9933 -0.416869 -1.79113e-21)
(39.9863 -0.436196 -5.96338e-19)
(39.9781 -0.451358 2.0823e-19)
(39.9775 -0.471389 -2.2227e-19)
(39.9603 -0.486598 2.26124e-19)
(39.964 -0.51147 -3.64603e-19)
(39.945 -0.532389 -1.23477e-19)
(39.9477 -0.560308 1.25026e-19)
(39.9295 -0.588339 -5.53186e-19)
(39.9265 -0.619082 -1.52166e-21)
(39.9119 -0.6552 -1.75003e-21)
(39.9022 -0.689741 4.90187e-19)
(39.8845 -0.726818 -6.76813e-19)
(39.8815 -0.770699 1.78963e-19)
(39.8481 -0.806336 -1.86189e-19)
(39.8561 -0.862046 2.05093e-19)
(39.8149 -0.896375 -2.12763e-19)
(39.8185 -0.957116 2.21735e-19)
(39.781 -0.994105 0)
(39.7754 -1.06579 -2.44026e-19)
(39.7489 -1.10293 0)
(39.7213 -1.18331 2.72485e-19)
(39.7051 -1.22985 -2.98803e-19)
(39.6715 -1.30987 6.36976e-19)
(39.6397 -1.36847 -3.23947e-19)
(39.6261 -1.4602 3.4389e-19)
(39.5607 -1.52001 -7.45263e-19)
(39.5659 -1.62494 3.9759e-19)
(39.489 -1.70466 4.44582e-19)
(39.4825 -1.80923 9.01838e-19)
(39.412 -1.90971 -4.8292e-19)
(39.3856 -2.0277 1.04609e-18)
(39.3281 -2.15293 -3.22595e-19)
(39.2545 -2.27653 5.92561e-19)
(39.2371 -2.42738 -3.37755e-19)
(39.109 -2.59641 -3.49576e-19)
(39.0952 -2.74298 3.65628e-19)
(38.9647 -2.96921 -8.2785e-19)
(38.9051 -3.1271 4.25332e-19)
(38.7861 -3.41989 4.38547e-19)
(38.6821 -3.60646 -3.96149e-20)
(38.5416 -3.92876 5.40597e-19)
(38.4354 -4.21868 6.90834e-19)
(38.2253 -4.55599 -5.42142e-19)
(38.0806 -4.89074 0)
(37.8832 -5.38003 7.10105e-19)
(37.6474 -5.67484 9.24031e-19)
(37.475 -6.34536 8.38242e-19)
(37.1674 -6.84358 0)
(36.8663 -7.66576 9.98447e-19)
(36.6144 -8.61206 -1.40718e-18)
(40.0003 -0.000533502 1.72508e-21)
(40.0005 -0.00110387 2.30386e-19)
(40.001 -0.00141128 1.19846e-19)
(40.001 -0.00217449 0)
(40.0003 -0.00256492 8.03234e-21)
(39.9994 -0.00368085 -7.71791e-21)
(39.9989 -0.00592761 -1.39463e-19)
(39.999 -0.00974431 1.72815e-20)
(39.9984 -0.0156025 -3.73901e-20)
(39.9982 -0.0228441 -2.89432e-23)
(39.9982 -0.0313259 -1.4039e-19)
(39.9998 -0.0406078 1.66457e-19)
(39.9998 -0.0493187 1.73843e-19)
(40.0019 -0.0581231 -1.80467e-19)
(40.0017 -0.0659022 0)
(40.0045 -0.0726462 -9.72176e-20)
(40.0049 -0.0783414 2.51412e-20)
(40.0075 -0.0832091 -5.21584e-20)
(40.0079 -0.0877052 2.70471e-20)
(40.0111 -0.0919047 0)
(40.0111 -0.0955767 2.91888e-20)
(40.0142 -0.098866 -9.08714e-20)
(40.0139 -0.101422 1.25811e-19)
(40.0153 -0.104616 -6.52834e-20)
(40.0149 -0.107246 -1.35217e-19)
(40.0138 -0.111413 0)
(40.0141 -0.11851 -7.43054e-20)
(40.0135 -0.128408 -2.303e-19)
(40.011 -0.138686 -1.6024e-19)
(40.0135 -0.15396 0)
(40.009 -0.166365 -1.71255e-19)
(40.0111 -0.18339 0)
(40.0084 -0.196429 -1.85686e-19)
(40.007 -0.213765 2.94031e-19)
(40.008 -0.227859 5.09997e-22)
(40.0019 -0.241268 1.08023e-19)
(40.0057 -0.257505 1.10823e-19)
(39.998 -0.268615 -2.30656e-19)
(40 -0.28282 2.37852e-19)
(39.9936 -0.292821 -3.1928e-21)
(39.9939 -0.307337 1.30866e-19)
(39.9891 -0.316441 1.80621e-21)
(39.9864 -0.32842 -1.04878e-21)
(39.9828 -0.340814 1.51669e-19)
(39.9753 -0.350188 1.55088e-19)
(39.9753 -0.365153 -1.62191e-19)
(39.9635 -0.375387 0)
(39.9623 -0.385469 0)
(39.9536 -0.403214 0)
(39.9429 -0.411909 2.96107e-19)
(39.9422 -0.431019 3.13171e-19)
(39.924 -0.44313 -2.21087e-19)
(39.9253 -0.46432 4.55681e-19)
(39.9071 -0.47701 0)
(39.9031 -0.50002 1.1811e-19)
(39.8889 -0.524612 -1.31554e-19)
(39.8746 -0.542963 2.73465e-19)
(39.869 -0.579476 -1.48933e-19)
(39.8449 -0.598272 0)
(39.8423 -0.643442 0)
(39.8138 -0.663899 -1.67765e-19)
(39.8063 -0.712533 -1.84352e-19)
(39.7855 -0.739778 0)
(39.7579 -0.782512 -3.16755e-21)
(39.7559 -0.834206 -4.20187e-19)
(39.7115 -0.861845 0)
(39.71 -0.923211 0)
(39.67 -0.956621 2.55166e-19)
(39.6526 -1.0263 2.8017e-19)
(39.6245 -1.0586 4.87007e-21)
(39.5904 -1.13401 -2.92729e-19)
(39.5703 -1.18364 -5.85916e-21)
(39.5277 -1.24985 -3.45518e-19)
(39.4985 -1.31577 -3.67083e-19)
(39.4643 -1.39109 7.74922e-19)
(39.4113 -1.46009 8.84333e-21)
(39.3876 -1.54581 -4.36834e-19)
(39.3167 -1.63203 -4.54927e-19)
(39.2865 -1.72335 -5.11707e-19)
(39.2122 -1.81452 -2.95463e-19)
(39.1653 -1.93956 -5.72744e-19)
(39.0945 -2.0328 5.89433e-19)
(39.0131 -2.17747 -3.52012e-19)
(38.9633 -2.28914 -2.19729e-20)
(38.834 -2.46212 7.96473e-19)
(38.7934 -2.59537 0)
(38.648 -2.79642 9.18248e-19)
(38.5714 -2.94559 5.06138e-19)
(38.4403 -3.21391 -1.10529e-18)
(38.3188 -3.38827 0)
(38.171 -3.68379 0)
(38.0389 -3.93192 9.22784e-20)
(37.8543 -4.31524 -1.55035e-18)
(37.6931 -4.55151 0)
(37.4963 -5.11982 -9.57301e-19)
(37.2562 -5.44638 5.63506e-20)
(37.0125 -6.12675 0)
(36.6602 -6.7393 0)
(36.2819 -7.43229 1.55938e-18)
(35.7504 -8.40897 1.46393e-18)
(40.0004 -0.000757106 0)
(40.0005 -0.00140912 -1.16258e-19)
(40.0011 -0.00184658 3.77528e-21)
(40.001 -0.00259272 3.89991e-21)
(40 -0.0029367 -8.07761e-21)
(39.9989 -0.00394868 -2.70555e-19)
(39.9983 -0.00635658 2.80585e-19)
(39.9986 -0.0107874 1.45108e-19)
(39.9974 -0.0179004 0)
(39.9971 -0.0262366 0)
(39.9975 -0.0364785 0)
(39.9991 -0.0472159 0)
(39.9995 -0.0575816 -1.74499e-19)
(40.0005 -0.0673817 1.81162e-19)
(40.0005 -0.0759172 0)
(40.0031 -0.082969 7.30905e-20)
(40.0033 -0.0886128 2.5402e-20)
(40.0054 -0.0931593 0)
(40.0053 -0.09703 0)
(40.0077 -0.101017 2.85031e-20)
(40.0084 -0.103688 -1.48437e-19)
(40.0089 -0.10737 0)
(40.0088 -0.109622 0)
(40.0093 -0.112737 1.33586e-19)
(40.0092 -0.114965 -3.45991e-20)
(40.0084 -0.118344 -1.28113e-22)
(40.0072 -0.123201 3.54181e-20)
(40.0065 -0.133688 1.93457e-19)
(40.003 -0.143889 1.20622e-19)
(40.006 -0.159959 -8.46069e-20)
(40.0009 -0.17265 1.75923e-19)
(40.0027 -0.191146 -9.14562e-20)
(39.9994 -0.204751 9.69181e-20)
(39.9976 -0.222003 -9.83074e-20)
(39.9979 -0.238165 -1.04245e-19)
(39.9911 -0.250511 -1.07001e-19)
(39.9935 -0.267984 -1.14322e-19)
(39.9854 -0.279517 0)
(39.9861 -0.293087 1.2486e-19)
(39.9782 -0.306203 1.27911e-19)
(39.9778 -0.317253 0)
(39.9708 -0.331198 1.42839e-19)
(39.9674 -0.339123 1.49271e-19)
(39.9617 -0.355883 -3.08806e-19)
(39.9529 -0.364178 2.45403e-19)
(39.9501 -0.378987 7.32126e-22)
(39.9368 -0.390372 -1.77881e-19)
(39.9336 -0.402766 9.28403e-20)
(39.9223 -0.419539 -9.83078e-20)
(39.912 -0.428292 -1.00162e-19)
(39.9062 -0.449281 -1.01592e-19)
(39.8886 -0.464639 3.35768e-19)
(39.8869 -0.48093 7.9056e-21)
(39.869 -0.504207 2.53801e-19)
(39.8591 -0.519181 3.94034e-19)
(39.8513 -0.548445 2.76753e-19)
(39.8267 -0.566141 -2.91969e-19)
(39.829 -0.601017 1.49103e-19)
(39.7957 -0.623525 -1.61831e-19)
(39.7974 -0.665266 1.6638e-19)
(39.7606 -0.689063 -1.78378e-19)
(39.7568 -0.741085 1.86359e-19)
(39.7263 -0.763294 -2.03427e-19)
(39.7014 -0.816565 6.39653e-19)
(39.6932 -0.864128 -2.3193e-19)
(39.6421 -0.89381 -2.40715e-19)
(39.6409 -0.959671 2.46754e-19)
(39.5922 -0.995935 -5.45697e-19)
(39.5711 -1.06563 -2.79599e-19)
(39.541 -1.10178 3.14429e-19)
(39.4921 -1.1781 -3.16073e-19)
(39.4797 -1.23342 0)
(39.4106 -1.30426 7.29966e-19)
(39.3968 -1.36445 8.63646e-21)
(39.3313 -1.45187 -8.43363e-19)
(39.2887 -1.52368 4.57149e-19)
(39.2411 -1.60476 9.67142e-19)
(39.1688 -1.70148 -1.03744e-18)
(39.1299 -1.80052 2.60081e-19)
(39.0358 -1.88186 9.03373e-19)
(38.9922 -2.03028 -3.18085e-19)
(38.8948 -2.10264 -1.9788e-20)
(38.8159 -2.2805 3.36901e-19)
(38.7438 -2.37206 -4.24917e-19)
(38.6072 -2.55906 2.80441e-20)
(38.5515 -2.69888 -4.70706e-19)
(38.3871 -2.89657 -1.04311e-18)
(38.2953 -3.06295 -5.99051e-19)
(38.1432 -3.31416 -6.74596e-20)
(37.9873 -3.50432 -6.94938e-19)
(37.8205 -3.81028 7.31794e-19)
(37.6425 -4.03251 9.72853e-20)
(37.4088 -4.43358 8.51985e-19)
(37.1845 -4.67753 0)
(36.907 -5.19209 0)
(36.5758 -5.49431 1.27176e-18)
(36.2198 -6.08064 8.44368e-19)
(35.7956 -6.5601 7.82674e-20)
(35.3497 -7.19323 -1.61826e-18)
(34.7133 -7.94048 1.05291e-18)
(40.0004 -0.000906092 1.74645e-21)
(40.0005 -0.00152811 1.19775e-19)
(40.0009 -0.00207386 -1.25787e-19)
(40.0006 -0.00263025 0)
(39.9996 -0.00275175 -1.31215e-19)
(39.9978 -0.0037498 1.35906e-19)
(39.9976 -0.00610271 -1.40886e-19)
(39.9978 -0.0111855 1.47094e-19)
(39.9968 -0.0187911 0)
(39.9957 -0.0283531 0)
(39.9961 -0.0395633 8.23811e-20)
(39.9968 -0.051031 0)
(39.9972 -0.0620677 2.21423e-20)
(39.9971 -0.0724751 5.48787e-23)
(39.9972 -0.0805671 5.0529e-23)
(39.9989 -0.0876365 -1.24238e-19)
(39.9987 -0.0928675 -1.03355e-19)
(39.9995 -0.0970452 0)
(39.9986 -0.100086 2.78226e-20)
(40.0007 -0.103477 -1.44861e-19)
(40.0002 -0.10554 1.19387e-19)
(40.0011 -0.108382 -3.12273e-20)
(39.9993 -0.110416 -1.0389e-22)
(39.9987 -0.113182 -1.00506e-19)
(39.9975 -0.11493 0)
(39.9952 -0.118295 0)
(39.9932 -0.122433 1.88821e-19)
(39.9904 -0.132273 -2.38179e-19)
(39.9861 -0.142556 4.12217e-20)
(39.9862 -0.15909 4.31515e-20)
(39.98 -0.171759 4.56639e-20)
(39.9796 -0.190724 0)
(39.9739 -0.204722 -1.93774e-19)
(39.9712 -0.222093 5.11066e-20)
(39.9689 -0.237692 5.42507e-20)
(39.9621 -0.250508 1.12136e-19)
(39.9606 -0.268598 1.15009e-19)
(39.9532 -0.279705 -6.09111e-20)
(39.9496 -0.29268 -6.24021e-20)
(39.9432 -0.307898 -1.34237e-19)
(39.9369 -0.316833 -1.4052e-19)
(39.9329 -0.330434 -2.17908e-19)
(39.9212 -0.338052 -7.21571e-20)
(39.9197 -0.354438 2.3875e-19)
(39.9058 -0.360159 -8.18428e-20)
(39.9009 -0.374801 0)
(39.8904 -0.383801 -9.26104e-20)
(39.8767 -0.394275 9.62627e-20)
(39.8728 -0.412793 0)
(39.8541 -0.417852 0)
(39.8476 -0.435117 -2.20847e-19)
(39.8286 -0.451281 2.38667e-19)
(39.8208 -0.463599 -3.67189e-19)
(39.8041 -0.486956 -2.567e-19)
(39.7839 -0.498872 -1.29863e-19)
(39.7792 -0.529797 1.4514e-19)
(39.7449 -0.545502 1.51344e-19)
(39.7424 -0.58271 -3.23236e-19)
(39.71 -0.597514 1.70354e-19)
(39.7004 -0.642653 1.7832e-19)
(39.6658 -0.662069 -3.83826e-19)
(39.6517 -0.714201 0)
(39.6199 -0.737214 0)
(39.5912 -0.78077 -2.21353e-19)
(39.573 -0.833075 -1.18278e-20)
(39.5228 -0.857124 0)
(39.5148 -0.924028 5.35344e-19)
(39.4581 -0.950122 -3.01397e-19)
(39.4292 -1.02375 0)
(39.3954 -1.05436 1.27857e-20)
(39.3392 -1.12645 -3.45614e-19)
(39.3112 -1.17021 0)
(39.2446 -1.24399 4.12796e-19)
(39.2154 -1.29659 -4.33187e-19)
(39.1332 -1.3757 -1.14592e-20)
(39.103 -1.43765 1.06455e-20)
(39.0142 -1.52629 -2.74145e-19)
(38.9688 -1.59239 2.88508e-19)
(38.8855 -1.69999 2.28707e-22)
(38.8017 -1.75744 8.02074e-21)
(38.7425 -1.90891 0)
(38.6159 -1.95822 -4.01657e-19)
(38.556 -2.13084 3.99556e-19)
(38.431 -2.19562 4.34719e-19)
(38.3064 -2.38627 0)
(38.2202 -2.48591 5.47725e-19)
(38.0322 -2.68519 -1.66031e-20)
(37.9422 -2.82138 1.28972e-18)
(37.7322 -3.04855 6.71638e-19)
(37.5948 -3.20902 -2.19974e-20)
(37.3751 -3.50541 -1.71463e-18)
(37.1884 -3.66858 -9.66904e-19)
(36.9275 -4.05082 1.07477e-18)
(36.6686 -4.26236 -1.13552e-18)
(36.4245 -4.71571 0)
(36.0025 -5.00472 -7.67931e-19)
(35.7886 -5.55123 -1.50768e-18)
(35.2435 -6.01549 1.00543e-18)
(34.8343 -6.76065 1.10719e-18)
(34.1121 -7.30416 -1.29065e-18)
(40.0004 -0.000936033 1.15089e-19)
(40.0004 -0.00150635 -1.22349e-19)
(40.0003 -0.00178897 1.11317e-21)
(40 -0.00200473 -1.27086e-19)
(39.999 -0.00191679 1.22978e-19)
(39.9968 -0.00272739 8.54457e-21)
(39.9968 -0.00477301 0)
(39.9965 -0.0098219 -1.4724e-19)
(39.9957 -0.0184656 -9.62809e-21)
(39.9941 -0.0290016 9.01091e-20)
(39.9942 -0.0414275 -1.45067e-19)
(39.9947 -0.0541833 -2.14947e-20)
(39.9946 -0.0662642 0)
(39.9944 -0.0770954 -9.31531e-20)
(39.9939 -0.0858949 9.68018e-20)
(39.9948 -0.0929786 9.9833e-20)
(39.9945 -0.0981783 2.34324e-19)
(39.9948 -0.102632 -5.41299e-20)
(39.9936 -0.105061 5.62755e-20)
(39.9943 -0.108003 2.34053e-19)
(39.9934 -0.109409 -3.03461e-20)
(39.9932 -0.11223 -1.26835e-19)
(39.9908 -0.11335 -3.29156e-20)
(39.9902 -0.116036 1.71666e-19)
(39.9868 -0.11768 1.78909e-19)
(39.9857 -0.120678 -3.70278e-20)
(39.9815 -0.124629 0)
(39.9788 -0.133114 1.60375e-19)
(39.9736 -0.144204 0)
(39.9731 -0.160207 4.39961e-20)
(39.9671 -0.174077 -2.74656e-19)
(39.9654 -0.193086 4.76383e-20)
(39.9602 -0.20658 0)
(39.9565 -0.224336 5.22489e-20)
(39.9526 -0.239769 -1.62101e-19)
(39.9469 -0.25288 -5.56657e-20)
(39.9416 -0.270084 -1.7934e-19)
(39.9351 -0.282008 1.25707e-19)
(39.9274 -0.292041 0)
(39.9218 -0.309716 1.35045e-19)
(39.9114 -0.315825 2.85923e-19)
(39.9076 -0.331632 1.48042e-19)
(39.8932 -0.337577 -3.93254e-19)
(39.8889 -0.354992 -1.63532e-19)
(39.8737 -0.359735 -1.76184e-19)
(39.8664 -0.375476 1.81685e-19)
(39.8531 -0.384966 -1.90895e-19)
(39.8384 -0.393644 -1.07618e-21)
(39.8307 -0.413426 -1.21396e-21)
(39.8103 -0.420369 1.10312e-19)
(39.7987 -0.434054 0)
(39.7831 -0.456023 2.77058e-21)
(39.7642 -0.463026 -1.28621e-19)
(39.7531 -0.488213 -1.42841e-21)
(39.7252 -0.499624 -4.28393e-19)
(39.7199 -0.531691 1.49677e-19)
(39.6845 -0.545291 -1.60233e-19)
(39.6785 -0.583677 3.33365e-19)
(39.6446 -0.599491 -1.80693e-19)
(39.6305 -0.64598 1.88237e-19)
(39.5975 -0.662804 4.02333e-19)
(39.5741 -0.714205 0)
(39.5484 -0.741337 0)
(39.5063 -0.781758 0)
(39.4928 -0.836908 2.49286e-19)
(39.4339 -0.859554 0)
(39.4234 -0.925557 0)
(39.3578 -0.951761 2.99877e-19)
(39.3379 -1.02637 0)
(39.2767 -1.04909 -1.74984e-19)
(39.2335 -1.13249 7.52316e-19)
(39.191 -1.17002 9.97348e-21)
(39.1178 -1.2393 -8.4508e-19)
(39.0853 -1.30178 -7.08807e-19)
(38.9948 -1.36725 2.38809e-19)
(38.9591 -1.43913 5.35896e-19)
(38.8583 -1.52293 -5.93523e-21)
(38.8167 -1.59322 0)
(38.7003 -1.69572 2.45405e-20)
(38.6419 -1.76454 -3.77102e-19)
(38.5387 -1.90299 -4.09021e-19)
(38.4321 -1.96058 8.42571e-19)
(38.3444 -2.13827 -4.54793e-19)
(38.2083 -2.19869 5.26262e-19)
(38.0887 -2.39858 0)
(37.9679 -2.48501 0)
(37.7787 -2.69966 0)
(37.6608 -2.83099 -6.91791e-19)
(37.4373 -3.05805 1.8562e-20)
(37.2711 -3.21186 -1.22562e-19)
(37.0284 -3.5308 -4.60666e-20)
(36.7964 -3.66981 2.07073e-18)
(36.53 -4.06177 0)
(36.2141 -4.26287 0)
(35.9321 -4.71211 -1.47897e-20)
(35.4454 -4.98424 -2.01976e-20)
(35.1806 -5.52496 8.12684e-20)
(34.4685 -5.88514 -2.0399e-18)
(34.0284 -6.48852 -2.42165e-18)
(33.1315 -7.05301 1.33932e-18)
(40.0003 -0.000842875 -2.27041e-19)
(40.0001 -0.0010728 -9.22732e-22)
(40 -0.000761152 1.25397e-19)
(39.9995 -0.000490152 1.19796e-19)
(39.9983 2.96177e-05 4.16468e-21)
(39.9959 -0.000388408 0)
(39.9954 -0.00227962 0)
(39.9954 -0.00701038 0)
(39.9943 -0.0162316 0)
(39.9922 -0.0281329 -1.61181e-19)
(39.9922 -0.0416414 8.34103e-20)
(39.9918 -0.0554837 0)
(39.9916 -0.0681735 2.25845e-20)
(39.991 -0.0793036 1.64063e-19)
(39.9899 -0.0882632 -1.94843e-19)
(39.9901 -0.0958449 1.01592e-19)
(39.989 -0.100314 -1.0487e-19)
(39.9884 -0.104643 2.74125e-20)
(39.9867 -0.106265 -1.42703e-19)
(39.9859 -0.108716 -1.17923e-19)
(39.9841 -0.109105 -9.28661e-20)
(39.9828 -0.111196 1.27516e-19)
(39.9796 -0.111597 -3.32533e-20)
(39.9772 -0.113573 -1.38257e-19)
(39.9737 -0.114999 -7.12162e-20)
(39.9694 -0.116473 -7.58751e-20)
(39.9671 -0.121447 0)
(39.9599 -0.126565 0)
(39.9573 -0.139728 4.28931e-20)
(39.9508 -0.152642 -4.45633e-20)
(39.9459 -0.168378 4.5829e-20)
(39.9413 -0.185041 1.46765e-19)
(39.934 -0.19887 -1.02604e-19)
(39.929 -0.217147 -5.38904e-20)
(39.9222 -0.230302 -5.54317e-20)
(39.9158 -0.245484 0)
(39.9061 -0.260198 1.81867e-19)
(39.9011 -0.273643 -1.25187e-19)
(39.8864 -0.282614 2.68826e-19)
(39.8827 -0.301039 -6.9787e-20)
(39.8676 -0.305771 7.70761e-20)
(39.8622 -0.322115 -7.67562e-20)
(39.8471 -0.32605 1.60001e-19)
(39.8386 -0.343336 -8.65915e-20)
(39.8237 -0.345957 8.75481e-20)
(39.8108 -0.359269 0)
(39.7996 -0.369427 1.00081e-19)
(39.7796 -0.374254 1.04549e-19)
(39.7706 -0.392615 -1.08725e-19)
(39.7481 -0.398252 1.15984e-19)
(39.7332 -0.406854 -2.43977e-19)
(39.7179 -0.430909 -1.30051e-19)
(39.6908 -0.435585 1.35964e-19)
(39.6813 -0.46008 -2.87858e-19)
(39.6486 -0.466269 2.97299e-19)
(39.6371 -0.501078 1.63824e-19)
(39.6017 -0.511059 -5.08309e-19)
(39.59 -0.547754 -4.97218e-21)
(39.5502 -0.558555 1.92066e-19)
(39.534 -0.604383 2.03741e-19)
(39.494 -0.618223 -2.07712e-19)
(39.4686 -0.666207 0)
(39.4368 -0.690128 0)
(39.3901 -0.722131 -5.18521e-19)
(39.3718 -0.778453 2.64202e-19)
(39.3091 -0.793631 -5.78592e-19)
(39.29 -0.858797 -4.68143e-19)
(39.2265 -0.880204 3.25478e-19)
(39.1925 -0.949141 -3.56177e-19)
(39.1339 -0.972541 3.82393e-19)
(39.0842 -1.04252 3.07678e-21)
(39.026 -1.08088 4.36292e-19)
(38.9626 -1.1482 0)
(38.9019 -1.20168 2.42375e-19)
(38.8192 -1.25923 0)
(38.7708 -1.33595 2.9926e-19)
(38.6489 -1.38944 -3.23417e-19)
(38.6079 -1.48424 3.43734e-19)
(38.4721 -1.5435 -7.13815e-19)
(38.414 -1.6286 7.9456e-19)
(38.2718 -1.74161 -3.08217e-20)
(38.1743 -1.79246 0)
(38.0515 -1.95391 -1.04838e-18)
(37.9007 -1.99468 1.1015e-20)
(37.7695 -2.18825 -6.21579e-19)
(37.6124 -2.23815 1.33549e-18)
(37.4127 -2.44274 -7.17494e-19)
(37.2715 -2.54618 0)
(37.0127 -2.74809 -8.5207e-19)
(36.8263 -2.86868 9.40369e-19)
(36.5764 -3.14951 0)
(36.2782 -3.25872 1.24115e-18)
(36.0355 -3.58731 -6.10892e-19)
(35.6635 -3.77874 0)
(35.3455 -4.10069 1.68272e-18)
(34.9198 -4.39433 9.87488e-19)
(34.5187 -4.75193 -1.10269e-18)
(33.9236 -5.14368 -8.84682e-20)
(33.4769 -5.62888 4.19721e-18)
(32.6337 -6.15885 -1.55651e-18)
(40.0001 -0.000536696 1.12811e-19)
(40 -0.000360248 0)
(40.0001 0.00105131 0)
(39.9993 0.00221194 0)
(39.9976 0.00335232 6.76582e-20)
(39.9949 0.00324943 -8.76727e-21)
(39.9942 0.00159628 9.04592e-21)
(39.9943 -0.00257081 0)
(39.9921 -0.0122008 0)
(39.9903 -0.02523 9.11932e-20)
(39.9889 -0.0398509 -1.05626e-19)
(39.9885 -0.0545406 2.19009e-20)
(39.9875 -0.0678098 9.12264e-20)
(39.9863 -0.0796662 -1.77213e-19)
(39.985 -0.0885233 -2.50859e-20)
(39.9841 -0.095985 5.90754e-22)
(39.9825 -0.100192 -2.66198e-20)
(39.981 -0.104033 1.38478e-19)
(39.9786 -0.105142 1.43457e-19)
(39.9768 -0.106823 -2.98764e-20)
(39.9741 -0.106171 1.24097e-19)
(39.9719 -0.107122 -6.50215e-20)
(39.9676 -0.106363 -3.39298e-20)
(39.9646 -0.107115 -3.51337e-20)
(39.9591 -0.108299 -7.30523e-20)
(39.9546 -0.10886 1.52955e-19)
(39.9503 -0.113952 -4.00297e-20)
(39.9428 -0.117998 4.13486e-20)
(39.9397 -0.131503 0)
(39.9302 -0.140531 0)
(39.9271 -0.160168 0)
(39.919 -0.174179 -9.8596e-20)
(39.9113 -0.189428 -5.36549e-20)
(39.9072 -0.208919 2.71283e-19)
(39.8947 -0.218002 0)
(39.8918 -0.238947 5.97283e-20)
(39.8784 -0.248008 -6.20436e-20)
(39.8724 -0.266146 -1.29426e-19)
(39.8584 -0.271788 2.56396e-21)
(39.852 -0.29079 -2.17114e-19)
(39.8357 -0.294259 -1.50191e-19)
(39.8275 -0.311341 1.58955e-19)
(39.8109 -0.312964 4.11365e-22)
(39.8011 -0.329737 3.48285e-19)
(39.7835 -0.330944 9.31743e-20)
(39.7692 -0.346023 9.7535e-20)
(39.7556 -0.351472 -9.88179e-20)
(39.7339 -0.359966 1.08187e-19)
(39.7232 -0.372645 2.20999e-21)
(39.6981 -0.381833 0)
(39.6797 -0.38771 -2.8162e-21)
(39.6652 -0.410594 1.28094e-19)
(39.6336 -0.412563 1.42788e-19)
(39.6212 -0.439055 1.45481e-19)
(39.5894 -0.44232 -1.59041e-19)
(39.5728 -0.473514 -1.63141e-19)
(39.5369 -0.480553 -6.44e-21)
(39.5193 -0.518971 3.73232e-19)
(39.4781 -0.527779 -1.93804e-19)
(39.4602 -0.571764 8.46533e-21)
(39.4145 -0.583016 0)
(39.3868 -0.632811 2.40086e-19)
(39.3495 -0.653857 -2.50403e-19)
(39.2992 -0.688974 5.35903e-19)
(39.277 -0.74225 -3.86159e-21)
(39.2085 -0.755161 1.41185e-19)
(39.1856 -0.822108 3.24325e-19)
(39.1121 -0.84129 -3.52522e-19)
(39.0844 -0.911271 -1.8943e-19)
(38.9985 -0.931016 2.81126e-21)
(38.9688 -1.00357 8.74147e-21)
(38.8788 -1.03694 -2.18897e-19)
(38.8252 -1.10305 -5.01518e-19)
(38.7464 -1.14628 2.72405e-19)
(38.6638 -1.22354 -2.85173e-19)
(38.5903 -1.26082 -3.03202e-19)
(38.4788 -1.34697 3.27813e-19)
(38.4151 -1.4061 7.49653e-19)
(38.2709 -1.48578 -7.94679e-19)
(38.2013 -1.55636 6.76555e-21)
(38.0468 -1.64962 4.53637e-19)
(37.9515 -1.71755 6.74438e-21)
(37.7952 -1.85503 5.17132e-19)
(37.6588 -1.89898 -2.40959e-20)
(37.5055 -2.07694 6.54989e-19)
(37.3347 -2.13035 3.79561e-19)
(37.139 -2.31496 8.25268e-19)
(36.9725 -2.42861 -1.33043e-18)
(36.7292 -2.59667 0)
(36.4936 -2.74807 5.57562e-19)
(36.2813 -2.96213 -5.89266e-19)
(35.9195 -3.12911 6.96648e-19)
(35.7057 -3.37473 5.80703e-20)
(35.2739 -3.62905 0)
(34.9542 -3.87108 -9.0269e-19)
(34.4931 -4.2213 -2.11134e-18)
(34.0332 -4.53126 5.68065e-21)
(33.447 -4.87114 2.61599e-18)
(32.8467 -5.42412 -1.4932e-18)
(32.0334 -5.67511 3.60403e-18)
(39.9998 -0.000136473 0)
(39.9998 0.000707162 5.96024e-20)
(40 0.00378857 0)
(39.999 0.00601204 0)
(39.9968 0.00784759 -7.20411e-20)
(39.9939 0.00825252 7.05369e-20)
(39.9931 0.00689589 4.54968e-21)
(39.9924 0.00325194 0)
(39.9902 -0.00625787 0)
(39.9874 -0.0203924 0)
(39.9858 -0.0357031 8.47274e-20)
(39.9847 -0.0510853 0)
(39.983 -0.0650552 -1.83132e-19)
(39.9811 -0.0771211 -3.33416e-22)
(39.9791 -0.0856847 9.88025e-20)
(39.9774 -0.0926055 -5.11698e-20)
(39.9751 -0.0962729 4.02287e-20)
(39.9729 -0.0994941 -9.72673e-20)
(39.9698 -0.0997233 5.81338e-20)
(39.967 -0.100738 0)
(39.9635 -0.0989704 0)
(39.9597 -0.098175 6.53124e-20)
(39.9556 -0.0969906 6.80622e-20)
(39.9491 -0.0954736 0)
(39.9455 -0.0969665 -7.42374e-20)
(39.9372 -0.0958821 -1.54323e-19)
(39.9339 -0.10127 -1.21463e-19)
(39.9236 -0.104198 4.18445e-20)
(39.9199 -0.116559 -4.42675e-20)
(39.9098 -0.125199 -4.60307e-20)
(39.9035 -0.144902 0)
(39.8954 -0.156746 -1.01568e-19)
(39.8856 -0.172481 1.04978e-19)
(39.8788 -0.19104 -1.65426e-19)
(39.8665 -0.19874 -5.8888e-20)
(39.8598 -0.220201 0)
(39.846 -0.226459 0)
(39.8379 -0.245407 1.34406e-19)
(39.8227 -0.250129 -2.0863e-19)
(39.8126 -0.268073 2.1984e-19)
(39.7963 -0.269627 8.6531e-22)
(39.7853 -0.286684 -1.61132e-19)
(39.7676 -0.28604 -2.56746e-19)
(39.7549 -0.302265 -9.03193e-20)
(39.7357 -0.299327 -9.36403e-20)
(39.7196 -0.315112 0)
(39.7025 -0.313877 2.00684e-21)
(39.6802 -0.326799 -2.2169e-19)
(39.6638 -0.328841 7.2927e-22)
(39.6383 -0.344127 0)
(39.6149 -0.343431 -1.31285e-19)
(39.5977 -0.365215 4.10546e-19)
(39.562 -0.364484 -2.89906e-19)
(39.545 -0.388577 3.08738e-19)
(39.5101 -0.394559 -2.21406e-21)
(39.4863 -0.418092 4.0716e-21)
(39.4529 -0.42549 3.67156e-19)
(39.4204 -0.459673 -1.91616e-19)
(39.3871 -0.466261 0)
(39.3534 -0.507206 7.29842e-21)
(39.3099 -0.513654 3.2621e-21)
(39.2767 -0.560819 0)
(39.2335 -0.575428 0)
(39.1806 -0.611069 0)
(39.1521 -0.650138 1.53025e-19)
(39.0807 -0.665997 -1.74416e-21)
(39.0493 -0.724179 -1.76777e-19)
(38.9783 -0.738685 -6.75472e-21)
(38.9344 -0.797029 -6.88379e-21)
(38.8577 -0.813214 2.18058e-19)
(38.8099 -0.888815 0)
(38.7197 -0.890391 0)
(38.6661 -0.976804 2.57715e-19)
(38.5676 -0.985766 0)
(38.4984 -1.07812 3.14532e-19)
(38.3943 -1.08181 -3.29527e-19)
(38.3125 -1.18062 0)
(38.1986 -1.20919 -3.85734e-19)
(38.085 -1.28844 -2.00689e-19)
(37.9919 -1.34836 2.38779e-19)
(37.8202 -1.41254 0)
(37.7385 -1.50479 3.11457e-19)
(37.5344 -1.57074 -9.01899e-19)
(37.4356 -1.65953 0)
(37.2088 -1.76812 -7.41472e-19)
(37.0768 -1.84712 3.956e-19)
(36.8316 -1.95924 4.49831e-19)
(36.6479 -2.10588 -5.0273e-19)
(36.3844 -2.18736 1.07777e-18)
(36.1391 -2.35651 -3.0823e-21)
(35.8665 -2.50062 -6.45309e-19)
(35.5068 -2.65877 4.80818e-20)
(35.2369 -2.81911 -7.94338e-19)
(34.7819 -3.0665 9.48328e-19)
(34.425 -3.22773 1.12626e-18)
(33.9196 -3.48834 -9.42419e-21)
(33.4564 -3.80153 -1.27323e-18)
(32.7936 -3.93497 1.54419e-18)
(32.3009 -4.4834 -3.29576e-18)
(31.3721 -4.60368 -3.98047e-18)
(39.9996 0.000216676 -5.7556e-20)
(39.9996 0.00230385 -1.86882e-21)
(39.9998 0.00726563 1.97504e-21)
(39.9986 0.0108492 0)
(39.9961 0.0135761 0)
(39.9931 0.0146842 -6.62453e-20)
(39.9917 0.0136904 -9.13198e-21)
(39.9906 0.0105132 -7.05828e-20)
(39.9881 0.0016993 0)
(39.9847 -0.0131657 1.02662e-20)
(39.9828 -0.0290453 -1.06392e-20)
(39.9807 -0.0450371 4.4228e-20)
(39.9785 -0.0591468 9.19072e-20)
(39.9757 -0.0711603 9.55628e-20)
(39.9733 -0.0790735 0)
(39.9706 -0.0854424 -5.16805e-20)
(39.9678 -0.0884099 -5.37672e-20)
(39.9647 -0.0913503 0)
(39.9611 -0.0913299 -5.82718e-20)
(39.9571 -0.090592 0)
(39.9534 -0.088282 -6.3384e-20)
(39.9479 -0.0837048 0)
(39.9428 -0.0837531 0)
(39.9352 -0.0790611 1.80072e-20)
(39.9305 -0.0801869 5.58762e-20)
(39.9207 -0.0779775 7.77842e-20)
(39.9163 -0.0838032 8.14353e-20)
(39.9055 -0.0855421 -4.26597e-20)
(39.8998 -0.0975311 4.43704e-20)
(39.8897 -0.104273 0)
(39.8815 -0.123344 0)
(39.8721 -0.134515 1.01941e-19)
(39.8613 -0.149524 -5.34119e-20)
(39.852 -0.166164 -5.64422e-20)
(39.8388 -0.17413 5.78617e-20)
(39.8305 -0.195612 6.14826e-20)
(39.8153 -0.200211 0)
(39.8049 -0.219009 -6.75344e-20)
(39.7896 -0.221801 0)
(39.7775 -0.239961 1.52703e-23)
(39.76 -0.239765 1.58035e-19)
(39.7474 -0.255857 0)
(39.7284 -0.252917 4.25837e-20)
(39.7135 -0.268835 9.04783e-20)
(39.6926 -0.264506 4.81926e-20)
(39.6764 -0.280179 1.54483e-19)
(39.6539 -0.274238 -5.34972e-20)
(39.635 -0.291009 5.74733e-20)
(39.6119 -0.285575 5.96636e-20)
(39.5892 -0.302108 0)
(39.5618 -0.301134 0)
(39.5419 -0.313849 -6.85793e-20)
(39.5075 -0.32464 -1.50554e-19)
(39.4853 -0.327479 7.90475e-20)
(39.4538 -0.349898 8.12168e-20)
(39.4176 -0.354321 -1.76842e-19)
(39.3948 -0.378293 -9.12013e-20)
(39.3471 -0.389135 -1.02339e-19)
(39.3218 -0.404821 1.06677e-19)
(39.2786 -0.440462 -1.13102e-19)
(39.2376 -0.443487 -2.40979e-19)
(39.2003 -0.485908 0)