/*--------------------------------*- C++ -*----------------------------------*\
| =========                 |                                                 |
| \\      /  F ield         | OpenFOAM: The Open Source CFD Toolbox           |
|  \\    /   O peration     | Version:  2.3.1                                 |
|   \\  /    A nd           | Web:      www.OpenFOAM.org                      |
|    \\/     M anipulation  |                                                 |
\*---------------------------------------------------------------------------*/
FoamFile
{
    version     2.0;
    format      ascii;
    class       volVectorField;
    location    "1000";
    object      U;
}
// * * * * * * * * * * * * * * * * * * * * * * * * * * * * * * * * * * * * * //

dimensions      [0 1 -1 0 0 0 0];

internalField   nonuniform List<vector> 
4825
(
(10 -0.000154555 0)
(10.0003 -0.000483303 -6.13411e-22)
(10.0004 -0.000829626 4.15423e-23)
(10.0004 -0.00132311 -1.12423e-22)
(10.0003 -0.00234278 -2.21911e-25)
(10.0009 -0.00477585 -8.4877e-22)
(10.0014 -0.00795343 -7.65374e-22)
(10.0023 -0.0102829 9.41423e-22)
(10.0037 -0.012631 0)
(10.0042 -0.0149878 1.09082e-21)
(10.0057 -0.0163811 6.21052e-22)
(10.0061 -0.0188117 0)
(10.0059 -0.0217027 7.29389e-22)
(10.007 -0.0248868 0)
(10.0072 -0.0296743 0)
(10.0069 -0.0360454 -1.31227e-21)
(10.0087 -0.0420168 1.97206e-21)
(10.0086 -0.0460302 -5.20412e-22)
(10.0095 -0.0519571 0)
(10.0095 -0.055993 0)
(10.0121 -0.0616064 1.97474e-21)
(10.0094 -0.066411 5.18474e-23)
(10.013 -0.0724592 0)
(10.0092 -0.0778564 -8.42268e-22)
(10.0112 -0.085202 0)
(10.0085 -0.09267 0)
(10.0046 -0.101761 2.36982e-21)
(10.0074 -0.116075 0)
(10.0008 -0.125705 1.54999e-21)
(10.0017 -0.140417 2.64955e-22)
(9.99728 -0.156416 -9.63786e-22)
(9.99281 -0.169866 1.76206e-21)
(9.99291 -0.193606 -2.29472e-21)
(9.97958 -0.209932 2.38494e-21)
(9.98835 -0.237985 -1.6525e-21)
(9.96917 -0.255567 -1.7445e-21)
(9.96598 -0.294851 -1.45588e-21)
(9.95859 -0.318506 -2.24502e-21)
(9.94304 -0.370956 4.41383e-21)
(9.93154 -0.401032 -2.98663e-21)
(9.92519 -0.469813 0)
(9.89979 -0.519881 2.03748e-21)
(9.89548 -0.606908 -2.41368e-21)
(9.8492 -0.699472 0)
(9.83415 -0.819714 2.66586e-21)
(9.74397 -0.952504 -2.94173e-21)
(9.74093 -1.15477 2.89221e-21)
(9.59305 -1.37396 6.25447e-21)
(9.60386 -1.69559 0)
(9.40474 -2.08192 1.88641e-21)
(10.0002 -0.000468865 5.88521e-22)
(10.0007 -0.00117814 -6.37317e-22)
(10.0006 -0.00193158 -7.55522e-22)
(10.0007 -0.00321916 -1.46023e-21)
(10.0006 -0.00615569 -1.01685e-22)
(10.0017 -0.0102809 1.07434e-21)
(10.002 -0.0142197 -6.0811e-22)
(10.0033 -0.0176146 0)
(10.0042 -0.0201148 -5.73763e-22)
(10.0047 -0.0218461 0)
(10.0054 -0.0235314 -6.27065e-22)
(10.006 -0.0264629 0)
(10.0058 -0.0298392 -7.37086e-22)
(10.0071 -0.0348522 0)
(10.0073 -0.0404575 1.3986e-21)
(10.0071 -0.046494 -4.87966e-22)
(10.0085 -0.0526131 -1.0213e-21)
(10.0068 -0.0578182 -5.88557e-22)
(10.0069 -0.0642524 1.27766e-21)
(10.0063 -0.0702908 -1.39865e-21)
(10.0049 -0.0771582 7.60404e-22)
(10.0024 -0.082633 -7.95708e-22)
(10.0025 -0.0911989 0)
(9.99727 -0.0968283 0)
(9.99758 -0.107399 1.78484e-21)
(9.99164 -0.115555 -6.14981e-22)
(9.99064 -0.12786 -2.09493e-21)
(9.9862 -0.145084 -1.60247e-21)
(9.97894 -0.155835 -1.58387e-21)
(9.97991 -0.173515 2.78977e-22)
(9.96429 -0.191751 -7.4347e-23)
(9.96608 -0.20978 -1.35742e-21)
(9.95503 -0.235043 1.24055e-21)
(9.94069 -0.255421 0)
(9.94069 -0.289016 1.5686e-21)
(9.91503 -0.310405 4.13432e-21)
(9.9128 -0.353673 0)
(9.88906 -0.384886 -8.24236e-22)
(9.87319 -0.441347 -4.55546e-21)
(9.85055 -0.479591 9.31726e-22)
(9.82783 -0.556794 -3.26988e-22)
(9.78362 -0.612336 -1.91937e-21)
(9.76729 -0.717616 3.29899e-21)
(9.6872 -0.802303 -3.92162e-21)
(9.66306 -0.93674 4.33388e-21)
(9.57183 -1.0757 6.93444e-21)
(9.51593 -1.25872 -6.58545e-21)
(9.36867 -1.48762 -1.49484e-20)
(9.3126 -1.75163 6.97855e-21)
(9.06205 -2.10632 0)
(10.0003 -0.000750384 -6.10372e-22)
(10.0007 -0.00164639 1.36292e-21)
(10.0004 -0.0024255 -4.57035e-23)
(10.0002 -0.00392051 3.63106e-22)
(9.99977 -0.00743977 0)
(10.0002 -0.0121974 1.18099e-22)
(10.0001 -0.0162062 3.66672e-22)
(10.0006 -0.0198534 0)
(10.0008 -0.0220619 5.78273e-22)
(10.0007 -0.0239276 1.63488e-22)
(10.0003 -0.0254849 1.77561e-24)
(10.001 -0.0283114 -9.9327e-22)
(9.99866 -0.0314466 8.77349e-22)
(9.99951 -0.0367286 4.79608e-22)
(9.99724 -0.0426012 -9.55039e-22)
(9.99589 -0.0483598 -5.76204e-22)
(9.99568 -0.0550879 0)
(9.9917 -0.0589524 3.31465e-22)
(9.99194 -0.0651078 4.09135e-22)
(9.98731 -0.0711255 -4.01825e-22)
(9.98563 -0.075666 8.77101e-22)
(9.98226 -0.0817944 -9.69844e-22)
(9.97752 -0.0884917 5.30445e-22)
(9.97362 -0.0927605 0)
(9.96824 -0.10346 -1.23581e-21)
(9.96369 -0.110769 -8.10553e-22)
(9.95553 -0.12116 1.53471e-21)
(9.95087 -0.137423 8.59585e-22)
(9.93845 -0.146665 1.16618e-21)
(9.93502 -0.162968 -1.0837e-21)
(9.91973 -0.178963 0)
(9.9111 -0.196214 1.38884e-21)
(9.90049 -0.217702 0)
(9.87667 -0.234541 2.08686e-21)
(9.87254 -0.269457 3.69361e-22)
(9.84066 -0.282983 -2.40273e-21)
(9.82936 -0.325241 0)
(9.79556 -0.347177 3.2493e-21)
(9.77092 -0.403297 -3.68515e-22)
(9.73009 -0.427272 2.04269e-21)
(9.6965 -0.499103 6.00881e-21)
(9.63801 -0.538701 3.59506e-21)
(9.59118 -0.629799 9.23133e-22)
(9.51192 -0.695159 1.20752e-21)
(9.45151 -0.814644 0)
(9.33171 -0.911086 -7.31659e-21)
(9.23899 -1.07271 -2.56886e-21)
(9.07167 -1.23381 1.31171e-20)
(8.90682 -1.47931 -2.77309e-20)
(8.62144 -1.73459 1.01507e-20)
(10.0003 -0.000898797 -1.05569e-23)
(10.0006 -0.0018473 -6.93995e-22)
(10.0002 -0.00253665 8.15663e-22)
(9.9996 -0.00394823 -2.89355e-23)
(9.99914 -0.00759188 -5.80781e-23)
(9.99868 -0.0129722 -4.6202e-22)
(9.99876 -0.0173935 6.99715e-23)
(9.99832 -0.0211544 -7.70004e-22)
(9.99762 -0.023328 0)
(9.99787 -0.0255773 5.5839e-22)
(9.99603 -0.0270659 3.86632e-22)
(9.9957 -0.0289891 5.98965e-22)
(9.9945 -0.0320036 -8.8439e-22)
(9.9915 -0.0355073 4.69191e-23)
(9.99135 -0.0418276 2.80334e-22)
(9.98742 -0.0485122 -3.63035e-22)
(9.98554 -0.0545802 3.4001e-22)
(9.98327 -0.0591099 -3.66638e-22)
(9.97794 -0.0638687 9.5278e-23)
(9.97717 -0.0728763 -9.65432e-22)
(9.96972 -0.0755255 -5.38115e-22)
(9.9677 -0.0832745 -6.00085e-22)
(9.95918 -0.0866777 0)
(9.9556 -0.0952831 -7.54948e-22)
(9.94715 -0.104964 8.067e-22)
(9.93956 -0.11114 -1.01279e-21)
(9.93253 -0.117963 0)
(9.92056 -0.136106 0)
(9.91112 -0.149393 -2.51566e-21)
(9.89791 -0.160192 1.44377e-21)
(9.88561 -0.181859 -1.08889e-22)
(9.86725 -0.196766 -1.89699e-21)
(9.85472 -0.21458 -1.23356e-21)
(9.82626 -0.238942 -1.34736e-21)
(9.8145 -0.268666 -1.23651e-21)
(9.77462 -0.287983 -1.84076e-21)
(9.75957 -0.322521 2.01417e-21)
(9.70929 -0.349434 -5.31685e-21)
(9.68845 -0.406513 2.82887e-21)
(9.62083 -0.427137 -3.67978e-21)
(9.59606 -0.500277 3.28831e-22)
(9.50471 -0.53099 2.86863e-21)
(9.47268 -0.629216 -3.51224e-21)
(9.35371 -0.687021 1.41587e-21)
(9.28226 -0.799249 1.1159e-21)
(9.15545 -0.906875 -4.9954e-21)
(9.00722 -1.03038 -7.24332e-21)
(8.83337 -1.2153 0)
(8.59856 -1.41644 1.11622e-20)
(8.33866 -1.62644 -3.64466e-21)
(10.0003 -0.000878826 -3.75896e-22)
(10.0002 -0.00147518 -4.06764e-22)
(9.99967 -0.00179388 0)
(9.99888 -0.00281103 -3.0019e-23)
(9.9981 -0.0061921 6.32238e-23)
(9.99721 -0.0118736 1.7837e-22)
(9.9962 -0.0161789 -3.06557e-22)
(9.99571 -0.0199681 1.03978e-21)
(9.99386 -0.0212555 2.77055e-22)
(9.99282 -0.0234493 -7.40925e-22)
(9.99091 -0.0241978 0)
(9.98807 -0.0252421 0)
(9.98662 -0.0288307 -2.56176e-22)
(9.98271 -0.0309568 2.40121e-23)
(9.97961 -0.0359655 -3.04008e-22)
(9.97675 -0.044377 1.00137e-21)
(9.97103 -0.0468475 3.80837e-22)
(9.96839 -0.0528397 -4.10815e-22)
(9.96116 -0.055711 -8.77229e-22)
(9.95698 -0.0635633 9.92299e-22)
(9.94864 -0.0642059 1.08859e-21)
(9.94326 -0.0694455 -2.79357e-23)
(9.93361 -0.0760577 7.40023e-22)
(9.92513 -0.0783964 -9.0351e-22)
(9.91588 -0.0888485 0)
(9.90234 -0.0965281 2.06527e-21)
(9.89369 -0.101851 -1.21225e-21)
(9.87711 -0.113217 6.94149e-22)
(9.86558 -0.126775 -7.53817e-22)
(9.84411 -0.132019 9.13691e-22)
(9.83166 -0.154795 3.04016e-21)
(9.80367 -0.161834 1.26049e-22)
(9.786 -0.177204 -1.64473e-22)
(9.75863 -0.197838 3.20501e-21)
(9.72438 -0.203691 2.11441e-22)
(9.70139 -0.245493 0)
(9.64842 -0.246976 0)
(9.62487 -0.284701 1.13008e-21)
(9.56087 -0.315063 -3.85674e-21)
(9.51379 -0.329836 8.88806e-21)
(9.44798 -0.389703 -2.21431e-21)
(9.3734 -0.416068 -2.95711e-21)
(9.2986 -0.476172 -7.00353e-22)
(9.17753 -0.500274 0)
(9.08093 -0.61965 6.6366e-21)
(8.92129 -0.655297 0)
(8.75673 -0.752209 0)
(8.56599 -0.857166 0)
(8.28264 -0.994563 -1.73658e-20)
(8.02685 -1.13394 6.21281e-20)
(10.0001 -0.00040481 1.77656e-22)
(9.99981 -9.58186e-05 6.35774e-22)
(9.99908 0.000240386 -1.41868e-23)
(9.99805 -0.000232906 4.78839e-22)
(9.9971 -0.00267488 -3.36854e-23)
(9.99547 -0.00802307 3.18983e-22)
(9.99416 -0.0123892 2.27791e-22)
(9.99246 -0.0156532 1.41595e-23)
(9.98991 -0.0158988 -3.62293e-22)
(9.98806 -0.0172093 -1.86363e-24)
(9.98505 -0.0172229 -4.94718e-24)
(9.98121 -0.0171151 -2.49409e-22)
(9.97889 -0.02035 4.16851e-22)
(9.97398 -0.0212087 0)
(9.96949 -0.0255368 0)
(9.96569 -0.0329187 -3.56115e-22)
(9.95837 -0.0333241 -4.24832e-22)
(9.954 -0.0398087 2.33744e-22)
(9.946 -0.0398598 -2.52328e-22)
(9.9394 -0.0473459 -8.43404e-22)
(9.93105 -0.0466642 9.41216e-22)
(9.9214 -0.050935 1.92416e-23)
(9.91389 -0.0567564 0)
(9.90015 -0.0538646 8.72705e-22)
(9.89134 -0.0626297 0)
(9.87627 -0.0700956 -5.62269e-22)
(9.86104 -0.0698674 6.3854e-22)
(9.84913 -0.0848622 8.00416e-22)
(9.82567 -0.0835735 -1.33629e-21)
(9.81138 -0.102722 5.36622e-22)
(9.78497 -0.100805 -1.11056e-21)
(9.76562 -0.124544 -1.28979e-21)
(9.73195 -0.121451 8.41551e-22)
(9.70928 -0.149344 0)
(9.66936 -0.145856 -2.04987e-21)
(9.63875 -0.180565 0)
(9.58697 -0.175853 1.61725e-21)
(9.54939 -0.213416 3.62713e-21)
(9.48631 -0.225589 -2.30465e-21)
(9.4257 -0.245629 3.92432e-21)
(9.36102 -0.288255 -6.34182e-21)
(9.26456 -0.299194 3.73538e-21)
(9.18278 -0.361082 4.4363e-21)
(9.06938 -0.359432 0)
(8.92115 -0.443082 -1.06551e-20)
(8.80262 -0.49895 0)
(8.57149 -0.518928 -6.23101e-21)
(8.40899 -0.655471 7.05814e-21)
(8.07822 -0.682325 9.92798e-21)
(7.82666 -0.83351 0)
(10 0.000255079 1.96242e-22)
(9.99965 0.00246776 -1.70583e-22)
(9.99874 0.00383625 -2.9786e-23)
(9.99752 0.00388229 -4.8236e-23)
(9.99632 0.00243098 -3.72629e-25)
(9.99457 -0.00123863 7.53951e-23)
(9.99247 -0.00586355 1.23791e-22)
(9.98992 -0.00669614 -1.7676e-22)
(9.98746 -0.00747934 -1.93227e-22)
(9.98433 -0.00717962 -5.46298e-23)
(9.98083 -0.00504283 1.71104e-22)
(9.97673 -0.00578949 1.95605e-22)
(9.97314 -0.00676047 -2.80121e-22)
(9.967 -0.00573353 -1.59757e-22)
(9.96336 -0.0108912 -3.53111e-24)
(9.9565 -0.0116189 9.3854e-23)
(9.95049 -0.017415 4.23945e-22)
(9.94332 -0.0152495 -1.23133e-22)
(9.93568 -0.0184024 0)
(9.92748 -0.0224015 2.9774e-22)
(9.91757 -0.0177297 0)
(9.90876 -0.0216122 2.17887e-22)
(9.89653 -0.0249262 -6.56279e-22)
(9.8832 -0.0194208 2.44097e-22)
(9.87371 -0.0263569 -2.90674e-22)
(9.85447 -0.0274446 1.52008e-22)
(9.8412 -0.0278534 0)
(9.82318 -0.0327988 2.14151e-22)
(9.80293 -0.039562 9.72488e-22)
(9.78004 -0.0329595 -1.66713e-21)
(9.75847 -0.0519483 6.3154e-22)
(9.72988 -0.0439272 7.85636e-22)
(9.69974 -0.0541526 -1.25691e-21)
(9.67026 -0.0650786 0)
(9.62922 -0.0515235 -1.89625e-21)
(9.58835 -0.0819218 2.82587e-21)
(9.54225 -0.0673477 -2.45496e-21)
(9.49203 -0.0851345 -1.39883e-21)
(9.42559 -0.0979174 -1.16968e-21)
(9.36244 -0.079527 8.69924e-22)
(9.28877 -0.131149 -1.68971e-21)
(9.18641 -0.0962986 -2.27114e-21)
(9.09484 -0.157142 -2.57977e-22)
(8.96754 -0.136504 6.54628e-21)
(8.8444 -0.140401 1.0717e-21)
(8.67552 -0.242383 -5.36413e-21)
(8.46474 -0.160647 9.44818e-21)
(8.29003 -0.260492 -6.10931e-21)
(7.95863 -0.27306 3.37719e-22)
(7.68574 -0.265232 -2.95604e-21)
(10.0001 0.000957181 0)
(9.99969 0.00535924 -1.09308e-22)
(9.99878 0.00809452 1.18135e-22)
(9.99753 0.00897573 0)
(9.99633 0.00847044 0)
(9.99455 0.00624671 -1.50838e-22)
(9.99215 0.00315394 -1.64566e-22)
(9.9897 0.00320545 0)
(9.98703 0.00352995 0)
(9.98367 0.00467353 0)
(9.97998 0.00918525 0)
(9.97615 0.00881266 0)
(9.97131 0.011298 0)
(9.96612 0.0109623 0)
(9.96132 0.00839469 -1.77049e-22)
(9.95527 0.0106349 0)
(9.94788 0.0061774 2.19376e-22)
(9.94062 0.00922324 2.45001e-22)
(9.93442 0.00822604 0)
(9.92362 0.00800829 0)
(9.91508 0.0144682 0)
(9.90463 0.0105956 -3.9037e-22)
(9.89397 0.0180693 0)
(9.8794 0.0146781 0)
(9.86783 0.0216072 0)
(9.85192 0.0222063 3.25229e-22)
(9.83468 0.0164113 0)
(9.81683 0.029167 -4.26608e-22)
(9.79685 0.0199643 0)
(9.77472 0.0314153 0)
(9.74915 0.0197632 0)
(9.72276 0.0361859 0)
(9.69218 0.0262201 -8.95528e-22)
(9.65636 0.0306791 0)
(9.62096 0.0479987 0)
(9.57741 0.0266043 0)
(9.52618 0.0531915 0)
(9.48046 0.0443552 1.03064e-21)
(9.4098 0.0598369 0)
(9.34575 0.0417716 -1.48502e-21)
(9.26867 0.092438 0)
(9.16909 0.048759 0)
(9.07603 0.104661 0)
(8.93689 0.0713957 0)
(8.82859 0.0936986 -2.06284e-21)
(8.634 0.150194 0)
(8.43418 0.0779879 0)
(8.24331 0.159952 -4.15731e-21)
(7.89564 0.14669 0)
(7.63257 0.172155 -6.99104e-21)
(10.0004 0.00154759 1.93167e-22)
(9.99997 0.00754879 -1.41237e-22)
(9.99917 0.0116948 -8.74045e-23)
(9.99823 0.0135568 4.68779e-23)
(9.99726 0.0138784 3.69425e-25)
(9.99584 0.0130894 7.53504e-23)
(9.99376 0.0118791 4.17815e-23)
(9.99178 0.0121744 -1.69608e-22)
(9.98941 0.0144985 -1.85579e-22)
(9.98632 0.0162038 5.31629e-23)
(9.98327 0.0222821 2.24772e-22)
(9.97948 0.0234986 -1.27572e-22)
(9.97541 0.027353 -2.01863e-22)
(9.97089 0.0277472 7.89855e-23)
(9.96581 0.0271551 1.77943e-22)
(9.96073 0.0308549 -9.14061e-23)
(9.95452 0.0313008 1.9617e-22)
(9.94656 0.0298993 -1.21554e-22)
(9.94211 0.0362499 -1.35816e-22)
(9.93104 0.0376216 4.33257e-22)
(9.92492 0.0432076 0)
(9.91349 0.0438745 -5.57242e-22)
(9.90458 0.0554512 6.40586e-22)
(9.891 0.0536835 -2.3829e-22)
(9.87989 0.0622756 0)
(9.86557 0.0691771 -1.61486e-22)
(9.84838 0.0665546 0)
(9.83458 0.0808284 -2.15129e-22)
(9.81237 0.0835603 4.25163e-22)
(9.79192 0.0834073 5.80652e-22)
(9.77219 0.103692 -6.18239e-22)
(9.73899 0.0986342 -7.6866e-22)
(9.71891 0.115374 4.6241e-22)
(9.67919 0.125703 0)
(9.64738 0.126791 1.86176e-21)
(9.6115 0.156083 -2.77513e-21)
(9.55526 0.161072 -7.84418e-22)
(9.51082 0.164891 -2.39864e-21)
(9.45951 0.21614 0)
(9.37308 0.200392 -2.13954e-21)
(9.31325 0.251675 1.66953e-21)
(9.22875 0.26322 2.23563e-21)
(9.11217 0.286925 2.57275e-22)
(9.022 0.337344 -6.44834e-21)
(8.8539 0.335749 8.61764e-21)
(8.71965 0.448678 5.28435e-21)
(8.5174 0.403727 -5.9669e-21)
(8.32358 0.54693 6.33577e-21)
(7.99561 0.544291 -2.03885e-20)
(7.74153 0.629903 9.79679e-21)
(10.0008 0.00185444 1.57991e-22)
(10.0004 0.00831542 5.7017e-22)
(9.9997 0.0135609 1.33539e-23)
(9.99937 0.0164646 4.46549e-22)
(9.9987 0.0173755 3.18588e-23)
(9.99798 0.0177485 2.29738e-22)
(9.99665 0.0178912 3.63189e-22)
(9.99507 0.0187423 -2.2537e-22)
(9.99389 0.0217561 -1.56949e-22)
(9.9913 0.0256015 9.90167e-23)
(9.98893 0.030622 -4.38149e-22)
(9.98682 0.0364352 1.16993e-22)
(9.98273 0.0374006 1.38675e-22)
(9.98006 0.0417864 1.42135e-22)
(9.97576 0.0421869 0)
(9.97086 0.0454394 -1.55101e-22)
(9.96748 0.0488215 -6.01926e-22)
(9.96033 0.0488077 -2.22043e-22)
(9.9556 0.0550842 2.39718e-22)
(9.94928 0.0614302 -7.98888e-22)
(9.93985 0.0638363 2.62577e-22)
(9.93566 0.0751333 6.98112e-22)
(9.92272 0.0778886 0)
(9.91629 0.0906177 8.20675e-22)
(9.90194 0.0922218 0)
(9.89412 0.106216 -5.27691e-22)
(9.87708 0.107762 6.01708e-22)
(9.86452 0.124816 0)
(9.84837 0.130933 -4.50739e-22)
(9.82852 0.138547 5.19246e-22)
(9.81358 0.160073 -1.04858e-21)
(9.78342 0.161132 -1.21722e-21)
(9.76904 0.184375 8.1435e-22)
(9.73473 0.19906 0)
(9.70135 0.207448 -1.94382e-21)
(9.67752 0.250716 0)
(9.61979 0.25623 1.57511e-21)
(9.59346 0.289814 3.48754e-21)
(9.52684 0.323765 2.22136e-21)
(9.47974 0.358512 -1.09887e-21)
(9.4065 0.382943 4.22252e-22)
(9.33009 0.450118 -3.6089e-21)
(9.23724 0.474465 4.23837e-21)
(9.14212 0.572448 0)
(8.9949 0.600294 -1.02914e-20)
(8.87629 0.703725 0)
(8.66283 0.775446 6.05101e-21)
(8.49409 0.887138 -6.8546e-21)
(8.17567 1.02822 9.72963e-21)
(7.91079 1.12688 0)
(10.0011 0.0018082 -3.46852e-22)
(10.0008 0.0079204 -3.76436e-22)
(10.0003 0.013229 0)
(10.0006 0.0165772 -3.95894e-23)
(10.0002 0.0182182 -5.81857e-23)
(10.0002 0.0194287 2.79463e-22)
(9.9997 0.0203526 -2.86596e-22)
(9.99894 0.0217923 8.05535e-22)
(9.99845 0.0253701 4.21531e-22)
(9.99697 0.0302053 -6.76858e-22)
(9.99542 0.0353485 1.96356e-22)
(9.99481 0.0416326 -2.1134e-22)
(9.99163 0.0439059 2.36834e-22)
(9.99064 0.0486094 -1.00208e-21)
(9.98726 0.0498726 2.80915e-22)
(9.98427 0.0539515 9.22432e-22)
(9.98159 0.0580189 0)
(9.97618 0.05989 0)
(9.97348 0.0665512 -7.9994e-22)
(9.96763 0.0740531 1.88712e-21)
(9.96313 0.0784975 -1.14354e-21)
(9.9564 0.0876218 1.14179e-21)
(9.94974 0.0984996 -6.84474e-22)
(9.9435 0.106308 6.23673e-22)
(9.93316 0.112375 0)
(9.92674 0.127423 1.41104e-21)
(9.91123 0.132134 -5.96136e-22)
(9.90545 0.149389 -6.4321e-22)
(9.88641 0.155015 6.98482e-22)
(9.87806 0.170693 -8.478e-22)
(9.85676 0.186462 2.70208e-21)
(9.84182 0.19652 2.26792e-21)
(9.81985 0.222663 2.4715e-21)
(9.79727 0.240624 -2.98675e-21)
(9.77207 0.264982 3.60398e-21)
(9.74096 0.296146 0)
(9.71083 0.318922 0)
(9.66994 0.348726 9.9629e-22)
(9.62974 0.404224 3.6291e-21)
(9.5733 0.422417 -8.37251e-21)
(9.52954 0.495322 7.60484e-21)
(9.43622 0.532723 -2.75828e-21)
(9.38974 0.614347 -7.61378e-22)
(9.26098 0.655377 0)
(9.19183 0.784304 6.37e-21)
(9.00868 0.834163 0)
(8.91244 0.980467 0)
(8.64675 1.09535 0)
(8.46897 1.28749 1.65917e-20)
(8.12682 1.39554 -2.24089e-20)
(10.0012 0.00147721 9.32444e-24)
(10.001 0.00661401 -6.27259e-22)
(10.0008 0.0115319 6.29829e-22)
(10.0012 0.0150254 -3.72134e-23)
(10.0014 0.0170369 5.19478e-23)
(10.0019 0.018325 -5.3505e-22)
(10.0019 0.0195594 -6.29109e-23)
(10.0023 0.0214572 -5.67186e-22)
(10.0024 0.0258699 1.45402e-22)
(10.0014 0.0307742 8.33608e-22)
(10.0021 0.0364377 -3.47824e-22)
(10.0011 0.0420274 1.1011e-21)
(9.99998 0.0453901 -7.82481e-22)
(10.0009 0.0499065 -1.71868e-22)
(9.99745 0.0529249 -2.52451e-22)
(9.99787 0.057357 2.01759e-22)
(9.99507 0.0609767 -3.05759e-22)
(9.99384 0.0641233 3.29705e-22)
(9.99182 0.0691438 1.05507e-22)
(9.98724 0.0770487 -8.83198e-22)
(9.98759 0.0852398 -4.90912e-22)
(9.98002 0.0933678 -1.06302e-21)
(9.97923 0.105149 5.55426e-22)
(9.97296 0.112218 -6.89746e-22)
(9.96837 0.122715 0)
(9.96345 0.139373 -1.51062e-22)
(9.95407 0.1465 0)
(9.94987 0.16318 0)
(9.93875 0.171565 1.48925e-22)
(9.93004 0.190163 -1.29535e-21)
(9.91941 0.211955 -3.25973e-21)
(9.90467 0.223376 1.70181e-21)
(9.8922 0.253067 -1.13041e-21)
(9.87488 0.271544 1.21485e-21)
(9.85463 0.303268 -5.141e-21)
(9.84036 0.335014 3.21756e-21)
(9.80309 0.36258 1.41588e-22)
(9.79599 0.418225 -2.34571e-21)
(9.73691 0.457211 -2.56667e-21)
(9.72152 0.513029 3.36758e-21)
(9.6647 0.573599 -7.05785e-21)
(9.61302 0.656104 2.67606e-21)
(9.5586 0.714542 -3.26621e-21)
(9.47271 0.830841 -1.37164e-20)
(9.39348 0.946603 -1.04687e-21)
(9.28375 1.06106 4.58907e-21)
(9.13273 1.2381 6.70229e-21)
(9.00125 1.43742 0)
(8.75216 1.67138 2.29378e-20)
(8.51015 1.89782 -1.83862e-20)
(10.0011 0.00105037 -5.20589e-22)
(10.0011 0.00491567 1.18049e-21)
(10.001 0.00885837 -5.39745e-23)
(10.0017 0.0119913 3.05425e-22)
(10.0021 0.0140896 0)
(10.0029 0.0154836 -1.03418e-22)
(10.0033 0.0168307 5.39431e-22)
(10.0043 0.0192959 0)
(10.0041 0.023498 5.03343e-22)
(10.0054 0.028875 -1.43524e-22)
(10.0052 0.0339816 -1.83464e-24)
(10.0053 0.0385772 -5.4754e-22)
(10.0063 0.0429285 7.79451e-22)
(10.0053 0.0464308 4.25889e-22)
(10.0055 0.0494832 -8.27161e-22)
(10.0057 0.0538183 -5.10856e-22)
(10.0034 0.0569203 0)
(10.0047 0.0612709 -2.89541e-22)
(10.001 0.0672011 9.9271e-22)
(10.0013 0.0748534 3.51054e-22)
(9.99857 0.0828662 -7.66434e-22)
(9.99588 0.0921781 8.46477e-22)
(9.99543 0.101049 -4.62348e-22)
(9.98971 0.107599 0)
(9.99071 0.11998 -1.05591e-21)
(9.98282 0.130672 -7.15828e-22)
(9.98369 0.141418 1.30148e-21)
(9.97438 0.149777 7.28382e-22)
(9.97517 0.166295 1.0262e-21)
(9.96231 0.178589 -9.14329e-22)
(9.96369 0.199192 0)
(9.94756 0.211922 1.1694e-21)
(9.94735 0.239184 0)
(9.92938 0.255654 -1.79842e-21)
(9.92313 0.291139 4.3021e-21)
(9.90908 0.31616 -2.01438e-21)
(9.8859 0.345504 0)
(9.8809 0.402146 2.71753e-21)
(9.84421 0.442277 3.59079e-21)
(9.8265 0.483047 2.07825e-21)
(9.79641 0.56719 5.75542e-21)
(9.752 0.624913 -3.13335e-21)
(9.72002 0.704419 -7.51821e-21)
(9.64977 0.816616 1.05522e-20)
(9.60073 0.924123 0)
(9.50243 1.06131 -6.20906e-21)
(9.41843 1.23542 1.81663e-20)
(9.26312 1.43818 -1.82502e-20)
(9.1415 1.68471 -8.45459e-21)
(8.92736 2.0331 -2.39515e-20)
(10.0006 0.000590769 5.17756e-22)
(10.001 0.00310249 -5.6296e-22)
(10.0011 0.00609565 -5.76145e-22)
(10.0022 0.00879998 -1.32906e-21)
(10.0028 0.0109439 8.72703e-23)
(10.0039 0.012538 5.3915e-22)
(10.0047 0.0139856 -3.23853e-22)
(10.0059 0.0165969 -1.10515e-22)
(10.0068 0.0204591 -3.80688e-22)
(10.0087 0.0255455 0)
(10.0096 0.0305679 -5.34928e-22)
(10.011 0.0346452 0)
(10.0126 0.0392756 -6.24547e-22)
(10.0127 0.0428148 0)
(10.0143 0.0460609 4.30719e-22)
(10.0152 0.0498679 4.17767e-22)
(10.0151 0.054111 -8.65106e-22)
(10.0164 0.0575276 4.99544e-22)
(10.0172 0.0643782 -1.08375e-21)
(10.0161 0.0725561 1.18377e-21)
(10.0184 0.0788321 -6.42479e-22)
(10.0174 0.0903581 -6.61462e-22)
(10.0167 0.0981868 3.92791e-22)
(10.0183 0.107053 -4.24218e-22)
(10.014 0.119533 5.62781e-22)
(10.0149 0.130727 5.14954e-22)
(10.0148 0.142393 -2.90046e-21)
(10.007 0.15356 -8.52066e-23)
(10.0123 0.169108 -1.2628e-21)
(10.0015 0.183703 -1.30058e-21)
(10.0066 0.203196 1.64244e-21)
(9.99495 0.219615 -1.14296e-21)
(9.99962 0.244912 9.61149e-22)
(9.98716 0.265122 0)
(9.98756 0.301266 1.2069e-21)
(9.98129 0.328093 5.01417e-21)
(9.96965 0.364041 -1.83113e-21)
(9.97078 0.421424 1.37443e-21)
(9.94814 0.462628 -6.06386e-21)
(9.94607 0.520343 5.05879e-22)
(9.92199 0.59828 -4.0104e-21)
(9.90763 0.677612 4.04807e-22)
(9.87884 0.758673 5.06434e-21)
(9.85269 0.897064 3.17537e-21)
(9.81922 1.01529 -3.50899e-21)
(9.74271 1.19298 5.88536e-21)
(9.71053 1.39486 -1.73633e-20)
(9.58498 1.64762 1.82159e-21)
(9.46579 1.94149 5.95278e-21)
(9.34258 2.3226 0)
(10.0001 0.000157835 0)
(10.0004 0.00114694 5.13915e-22)
(10.0006 0.00276823 -3.48863e-23)
(10.0015 0.00413133 1.24756e-21)
(10.0023 0.00540687 0)
(10.0032 0.00690236 -6.34542e-22)
(10.0043 0.00803608 6.40715e-22)
(10.0048 0.00977004 0)
(10.0054 0.0121428 0)
(10.0071 0.0161062 -9.1529e-22)
(10.0083 0.0212972 5.29843e-22)
(10.0094 0.0251064 0)
(10.0124 0.0289286 6.18082e-22)
(10.0127 0.03199 0)
(10.0153 0.0344906 0)
(10.0163 0.03738 1.08765e-21)
(10.0184 0.0413422 4.88501e-23)
(10.0187 0.0441619 4.35657e-22)
(10.02 0.0486791 0)
(10.0214 0.0554573 0)
(10.0207 0.0605349 -1.62482e-21)
(10.0249 0.0688468 1.25418e-21)
(10.0236 0.076854 6.59765e-22)
(10.0261 0.0833797 -3.9009e-23)
(10.0285 0.0945562 0)
(10.026 0.103218 0)
(10.0333 0.112546 1.67515e-22)
(10.027 0.123072 0)
(10.0343 0.134489 1.23614e-21)
(10.0272 0.147041 2.45353e-21)
(10.0349 0.162554 -7.57562e-22)
(10.0275 0.175534 -1.28241e-21)
(10.0345 0.196594 -1.36452e-22)
(10.028 0.211568 -1.74751e-21)
(10.031 0.242726 -1.03428e-21)
(10.0283 0.264507 -1.33582e-21)
(10.0193 0.298579 9.66502e-22)
(10.0373 0.343567 -1.7057e-21)
(10.0133 0.38089 8.28669e-22)
(10.0355 0.42937 -3.94133e-21)
(10.0011 0.500441 1.86237e-21)
(10.0232 0.570738 1.53069e-21)
(9.98823 0.647181 -1.81773e-21)
(9.99681 0.770037 0)
(9.99252 0.876889 -1.67735e-21)
(9.98463 1.05499 1.03849e-21)
(9.9609 1.21626 4.46761e-21)
(9.95272 1.52425 4.56041e-21)
(9.86062 1.8159 0)
(9.79394 2.35877 1.25123e-21)
(10.0933 0.00174334 1.05558e-22)
(10.0927 -0.00230363 9.70751e-23)
(10.0938 -0.00258047 7.98357e-24)
(10.0925 -0.00445432 -3.6701e-23)
(10.0918 -0.00557675 -1.51502e-22)
(10.0916 -0.00623197 1.48136e-22)
(10.0914 -0.00812981 2.10555e-22)
(10.0924 -0.00816746 -4.50125e-22)
(10.0922 -0.0099234 2.69606e-22)
(10.0923 -0.0105799 -2.69521e-22)
(10.0933 -0.0116081 0)
(10.0937 -0.011641 -9.25797e-23)
(10.0944 -0.0127062 -1.08701e-22)
(10.0949 -0.0128017 -2.31681e-22)
(10.0968 -0.0125786 -1.31005e-22)
(10.096 -0.0124736 4.23213e-22)
(10.0964 -0.0126775 0)
(10.0974 -0.0108645 1.83083e-22)
(10.0982 -0.00956214 -4.01362e-22)
(10.0971 -0.00802506 2.19987e-22)
(10.0987 -0.00527477 -7.65003e-22)
(10.0984 -0.00233487 5.28665e-22)
(10.0996 0.00164472 2.81007e-22)
(10.1002 0.00653376 3.9075e-22)
(10.1029 0.0115314 -2.23953e-22)
(10.1045 0.017281 2.03119e-22)
(10.1088 0.023118 -4.90037e-22)
(10.1084 0.0293649 -2.49258e-22)
(10.1083 0.0344845 2.69725e-22)
(10.105 0.0450554 -2.87209e-23)
(10.1094 0.0592732 2.96213e-22)
(10.1081 0.0812921 -1.01564e-21)
(10.1161 0.109861 2.71411e-22)
(10.1219 0.145803 1.29129e-22)
(10.143 0.184232 -5.3685e-22)
(10.1649 0.234777 2.21453e-23)
(10.1957 0.27819 1.12804e-22)
(10.2561 0.323374 0)
(10.3174 0.375565 2.92483e-22)
(10.4092 0.418143 1.06584e-21)
(10.4972 0.434316 -1.16598e-21)
(10.5801 0.442011 -2.45587e-22)
(10.6969 0.433922 -6.08732e-22)
(10.793 0.360927 3.09485e-21)
(10.8559 0.335055 2.42421e-21)
(10.8442 0.256572 0)
(10.7758 0.253628 2.07079e-21)
(10.6587 0.324105 -3.2272e-21)
(10.541 0.634003 -9.0011e-21)
(10.4714 1.01487 2.22081e-20)
(10.0927 -0.00060778 -2.34579e-22)
(10.0872 -0.00219825 8.62326e-24)
(10.088 -0.00364546 -1.88179e-23)
(10.0887 -0.00470282 -1.42941e-23)
(10.0895 -0.00565891 1.49414e-22)
(10.0896 -0.00615534 -1.69054e-22)
(10.0903 -0.0072695 0)
(10.0915 -0.00725168 2.75389e-22)
(10.0899 -0.00882788 -2.7042e-22)
(10.0913 -0.00864103 1.34268e-24)
(10.0928 -0.00916399 -8.81757e-23)
(10.0931 -0.00904764 4.81041e-23)
(10.0938 -0.0096609 1.55596e-22)
(10.0954 -0.00863608 2.32449e-22)
(10.097 -0.00872799 -1.93041e-22)
(10.0965 -0.00813318 2.80798e-22)
(10.0984 -0.00623048 -8.01692e-23)
(10.1008 -0.00394289 1.74015e-22)
(10.1019 -0.00263255 -9.44652e-23)
(10.103 0.00060813 0)
(10.1065 0.00411341 1.12854e-22)
(10.1081 0.00784884 -4.48901e-23)
(10.1124 0.0130677 -4.16236e-22)
(10.1148 0.0180594 7.55969e-23)
(10.1198 0.0242333 -3.36089e-22)
(10.1223 0.0310352 -2.36778e-22)
(10.1271 0.0383694 2.27079e-22)
(10.1285 0.047067 -2.49973e-22)
(10.1316 0.0581381 7.4389e-23)
(10.1338 0.0753285 4.22845e-22)
(10.1395 0.0975873 -8.74244e-23)
(10.1482 0.125436 9.4876e-23)
(10.1645 0.159473 0)
(10.1744 0.195936 0)
(10.2116 0.233027 5.25368e-23)
(10.2576 0.274503 0)
(10.3027 0.306089 0)
(10.3687 0.33681 9.60521e-22)
(10.4413 0.361945 -1.0499e-21)
(10.5235 0.371036 0)
(10.6105 0.362162 -1.44814e-21)
(10.6757 0.349879 1.18407e-21)
(10.758 0.321087 -4.0121e-21)
(10.8118 0.283317 1.30864e-21)
(10.8389 0.273424 5.55751e-21)
(10.8308 0.258798 8.23521e-22)
(10.8101 0.334583 -5.57689e-21)
(10.7631 0.424683 1.07748e-20)
(10.7747 0.707493 9.51931e-21)
(10.88 0.943224 -2.76241e-20)
(10.0882 -0.00068794 2.82133e-22)
(10.0846 -0.00174121 1.62501e-22)
(10.0856 -0.00264682 5.35997e-24)
(10.0869 -0.00284437 1.8111e-22)
(10.087 -0.00474509 0)
(10.0871 -0.00461021 0)
(10.0874 -0.00657319 0)
(10.0872 -0.00676162 0)
(10.0879 -0.00870853 3.89644e-23)
(10.0905 -0.0079797 -4.18834e-23)
(10.0917 -0.00880999 0)
(10.0922 -0.00880407 0)
(10.094 -0.00880043 -5.47952e-23)
(10.0959 -0.00781888 5.89637e-23)
(10.0977 -0.00803678 2.59999e-22)
(10.0994 -0.00693779 -2.14295e-22)
(10.1036 -0.00504087 -4.36316e-25)
(10.1054 -0.00381642 -7.97211e-23)
(10.1074 -0.00269183 0)
(10.1109 0.00026207 -8.72908e-23)
(10.1151 0.00291634 1.8467e-22)
(10.118 0.00606119 -2.23993e-22)
(10.1241 0.010006 -9.98498e-23)
(10.127 0.0142205 1.46991e-22)
(10.1343 0.0192289 9.77009e-23)
(10.1387 0.0251544 2.10019e-22)
(10.1461 0.032256 -1.49976e-22)
(10.1506 0.0411617 1.0442e-22)
(10.1613 0.052373 8.57055e-23)
(10.1739 0.0697369 1.07704e-22)
(10.1914 0.0863883 -1.83826e-22)
(10.2106 0.108057 2.0822e-22)
(10.2443 0.126086 1.06949e-22)
(10.2647 0.147103 2.35956e-22)
(10.3 0.164521 -1.53595e-21)
(10.3394 0.179831 -2.13072e-22)
(10.3732 0.191227 1.7457e-21)
(10.4244 0.208193 -1.6196e-21)
(10.4778 0.215424 -1.48725e-21)
(10.5261 0.229603 -3.86592e-22)
(10.5873 0.22433 -6.90218e-22)
(10.6424 0.233021 0)
(10.7084 0.236222 2.57525e-21)
(10.7726 0.232726 -3.40195e-21)
(10.8367 0.256078 -4.476e-21)
(10.8784 0.253358 0)
(10.9325 0.356718 5.31902e-21)
(10.9735 0.401084 -2.35435e-20)
(11.0199 0.665053 1.1034e-20)
(11.1706 0.83322 -1.00448e-21)
(10.0839 -0.00162693 -1.51456e-22)
(10.0834 -0.00155194 -2.71859e-22)
(10.083 -0.00286432 -6.24037e-24)
(10.0843 -0.00274709 -2.50223e-25)
(10.0835 -0.0053155 2.91022e-23)
(10.0849 -0.00509946 1.1586e-22)
(10.0851 -0.00724546 0)
(10.0855 -0.00732749 0)
(10.0877 -0.00852193 0)
(10.0903 -0.00778334 -1.7569e-22)
(10.0914 -0.00896119 0)
(10.0923 -0.00882687 -4.94969e-23)
(10.0963 -0.00882058 -5.3741e-23)
(10.0978 -0.00839223 0)
(10.1002 -0.00807147 1.14584e-22)
(10.1047 -0.00664334 0)
(10.1084 -0.00540335 5.66751e-23)
(10.1093 -0.00419011 1.33608e-22)
(10.1142 -0.00263688 -1.35331e-22)
(10.1203 0.000684902 1.83663e-22)
(10.1242 0.00287815 6.1096e-23)
(10.1296 0.00652776 -1.03869e-23)
(10.1368 0.0104871 -4.61629e-23)
(10.1417 0.0149423 -5.06402e-23)
(10.151 0.0203048 0)
(10.1578 0.0268871 -4.47784e-23)
(10.1686 0.034793 -4.45451e-23)
(10.1776 0.0442696 4.8272e-23)
(10.1962 0.0555682 -1.92074e-22)
(10.2146 0.0682765 -3.88211e-22)
(10.232 0.0790734 1.86716e-22)
(10.2498 0.0929191 -4.77092e-22)
(10.2765 0.102128 1.92588e-22)
(10.2983 0.112641 -2.54024e-22)
(10.3328 0.127697 8.41575e-22)
(10.3757 0.141999 -8.18141e-22)
(10.4188 0.154697 0)
(10.4747 0.172072 0)
(10.5409 0.16996 1.31432e-21)
(10.5915 0.17983 1.72281e-21)
(10.6637 0.163726 2.24482e-21)
(10.7324 0.166973 0)
(10.7944 0.155573 0)
(10.8555 0.151181 3.18514e-21)
(10.9154 0.181615 -8.26967e-21)
(10.9762 0.158692 1.47e-20)
(11.0491 0.275415 -2.75794e-22)
(11.1527 0.287714 0)
(11.2576 0.542213 1.41251e-20)
(11.4342 0.604694 -3.22192e-20)
(10.0793 -0.000617003 0)
(10.0821 -0.00184172 9.58746e-23)
(10.0813 -0.00278558 1.1525e-22)
(10.0803 -0.00362975 0)
(10.0801 -0.00605684 -1.5935e-23)
(10.0817 -0.00585003 -1.1501e-22)
(10.0823 -0.0083177 7.67644e-23)
(10.084 -0.0081683 1.01244e-22)
(10.0878 -0.00930062 -2.10765e-23)
(10.0895 -0.00917034 1.54467e-22)