/*--------------------------------*- C++ -*----------------------------------*\
| =========                 |                                                 |
| \\      /  F ield         | OpenFOAM: The Open Source CFD Toolbox           |
|  \\    /   O peration     | Version:  2.3.1                                 |
|   \\  /    A nd           | Web:      www.OpenFOAM.org                      |
|    \\/     M anipulation  |                                                 |
\*---------------------------------------------------------------------------*/
FoamFile
{
    version     2.0;
    format      ascii;
    class       volVectorField;
    location    "1000";
    object      U_0;
}
// * * * * * * * * * * * * * * * * * * * * * * * * * * * * * * * * * * * * * //

dimensions      [0 1 -1 0 0 0 0];

internalField   nonuniform List<vector> 
19300
(
(40 -6.29794e-05 2.19319e-19)
(40.0001 -0.000303447 0)
(40.0001 -0.000416239 2.37471e-19)
(40.0003 -0.000641518 1.1468e-19)
(40.0001 -0.000874959 1.26509e-19)
(40.0003 -0.00131116 -2.55086e-19)
(40.0001 -0.00189684 -1.19456e-19)
(40.0002 -0.00338702 -1.81425e-20)
(40.0002 -0.00561133 -1.28867e-19)
(40.0007 -0.0099593 -1.52077e-19)
(40.0004 -0.0148047 -1.77339e-19)
(40.0018 -0.0216984 -2.04652e-20)
(40.002 -0.0283705 2.12058e-20)
(40.004 -0.0363642 3.74133e-19)
(40.0051 -0.0440668 -2.16663e-20)
(40.0076 -0.0505742 1.66016e-19)
(40.0093 -0.0563861 2.44659e-20)
(40.0118 -0.0624049 -1.5301e-19)
(40.0133 -0.0666453 -5.26092e-20)
(40.0165 -0.0721585 2.17759e-19)
(40.0171 -0.075517 -1.13814e-19)
(40.0215 -0.0780039 1.16397e-19)
(40.022 -0.0813003 6.11564e-20)
(40.0256 -0.0843685 -3.17035e-19)
(40.0265 -0.0878587 0)
(40.0271 -0.0927585 1.3607e-19)
(40.0287 -0.0973227 0)
(40.0286 -0.106645 0)
(40.0285 -0.114005 7.671e-20)
(40.0307 -0.125555 -7.95486e-20)
(40.0286 -0.137587 0)
(40.0325 -0.150706 -1.73229e-19)
(40.0311 -0.164641 -1.80292e-19)
(40.0315 -0.178618 -1.87785e-19)
(40.0359 -0.193988 -2.92786e-19)
(40.0308 -0.207391 1.00796e-19)
(40.0383 -0.221575 2.12315e-19)
(40.0335 -0.234785 -1.13027e-19)
(40.0391 -0.248072 3.44777e-19)
(40.036 -0.259318 0)
(40.0387 -0.27165 0)
(40.0382 -0.282754 0)
(40.0364 -0.293153 0)
(40.0391 -0.304861 -8.60427e-22)
(40.0323 -0.313926 -1.45686e-19)
(40.0366 -0.326724 -1.51309e-19)
(40.0285 -0.338132 -1.61914e-19)
(40.03 -0.349892 3.38664e-19)
(40.0248 -0.363944 3.55357e-19)
(40.0212 -0.372773 -1.83911e-19)
(40.0189 -0.3929 3.87447e-19)
(40.0112 -0.403587 2.0332e-19)
(40.0141 -0.423799 -2.11046e-19)
(39.9984 -0.43805 -4.43329e-19)
(40.0045 -0.459839 -2.27062e-19)
(39.9849 -0.477682 6.25277e-21)
(39.991 -0.503652 -3.87894e-19)
(39.9704 -0.529623 1.40639e-19)
(39.975 -0.557133 0)
(39.9525 -0.591814 0)
(39.9594 -0.624218 0)
(39.9316 -0.657429 3.31731e-19)
(39.9415 -0.700566 3.38982e-19)
(39.9078 -0.732902 3.66068e-19)
(39.9191 -0.783622 2.29922e-21)
(39.8829 -0.818171 -1.94946e-19)
(39.8874 -0.876146 -2.10741e-19)
(39.862 -0.90845 -2.18946e-19)
(39.8535 -0.976743 4.72304e-19)
(39.8373 -1.01073 2.43274e-19)
(39.8251 -1.08507 -2.69695e-19)
(39.8016 -1.12739 0)
(39.8007 -1.20346 2.86329e-19)
(39.7512 -1.25782 6.33067e-19)
(39.7696 -1.34303 -6.66233e-19)
(39.7031 -1.39966 7.09709e-19)
(39.7076 -1.49877 -3.68326e-19)
(39.6501 -1.57057 0)
(39.6343 -1.67434 -4.17048e-19)
(39.5756 -1.77588 -4.42083e-19)
(39.542 -1.87845 -4.95039e-19)
(39.5037 -2.0166 -1.01728e-18)
(39.4307 -2.11994 0)
(39.4237 -2.27448 -5.8325e-19)
(39.3274 -2.42489 6.10107e-19)
(39.3241 -2.55409 0)
(39.2288 -2.783 2.28222e-20)
(39.1982 -2.92008 -7.28138e-19)
(39.1258 -3.20646 -8.10065e-19)
(39.0661 -3.38171 -5.94237e-20)
(38.9505 -3.73114 0)
(38.9083 -4.00218 1.0106e-18)
(38.7572 -4.4094 5.9264e-19)
(38.6749 -4.79488 -5.81846e-20)
(38.5088 -5.3279 -7.10628e-19)
(38.3621 -5.75174 1.28603e-18)
(38.1937 -6.48156 -1.56398e-18)
(38.0176 -6.9796 1.87539e-18)
(37.6577 -7.83176 -1.39454e-18)
(37.5201 -8.73622 0)
(40.0002 -0.000327589 0)
(40.0004 -0.000714717 -1.12508e-19)
(40.0006 -0.00084928 -2.43081e-19)
(40.0009 -0.00136823 -7.70488e-21)
(40.0005 -0.00181762 8.00133e-21)
(40.0004 -0.00283893 2.75096e-19)
(39.9997 -0.0047145 -8.64823e-21)
(40 -0.00828925 -6.23315e-22)
(39.9999 -0.0137707 1.48195e-19)
(40.0008 -0.0206721 0)
(40.0014 -0.0285416 1.60071e-19)
(40.0038 -0.0371458 -1.65977e-19)
(40.0046 -0.0451279 2.14569e-20)
(40.0076 -0.0532129 -1.99551e-19)
(40.0083 -0.0605454 -1.60833e-19)
(40.0115 -0.06663 -2.14696e-19)
(40.0129 -0.0722405 2.4853e-20)
(40.0157 -0.0766777 1.79583e-19)
(40.0172 -0.0810265 0)
(40.0198 -0.0854837 -5.55517e-20)
(40.0204 -0.0890888 1.14661e-19)
(40.0234 -0.0928742 1.78873e-19)
(40.0232 -0.0958086 0)
(40.0251 -0.099608 1.2846e-19)
(40.0253 -0.102607 1.34801e-19)
(40.0253 -0.107824 0)
(40.0267 -0.115332 0)
(40.0266 -0.125491 -7.52538e-20)
(40.0267 -0.135579 7.80113e-20)
(40.0294 -0.150293 0)
(40.0274 -0.163103 2.54773e-19)
(40.0318 -0.178983 1.74945e-19)
(40.0298 -0.192338 3.66701e-19)
(40.0315 -0.208662 9.4048e-20)
(40.0331 -0.223711 9.75954e-20)
(40.0294 -0.236273 2.07004e-19)
(40.0351 -0.252434 -4.30135e-19)
(40.0284 -0.264769 3.35733e-19)
(40.0333 -0.278855 -4.70222e-19)
(40.0266 -0.290392 -1.23942e-19)
(40.0307 -0.304075 0)
(40.0234 -0.315511 2.69369e-19)
(40.0252 -0.326618 -2.80424e-19)
(40.0193 -0.340374 -1.77159e-21)
(40.0153 -0.349789 1.5095e-19)
(40.0165 -0.36539 -3.15866e-19)
(40.0044 -0.376769 -1.20339e-21)
(40.007 -0.389988 -1.73547e-19)
(39.9958 -0.404928 1.21038e-21)
(39.994 -0.416772 -1.77248e-21)
(39.9867 -0.436254 -5.99476e-19)
(39.9788 -0.45133 2.09339e-19)
(39.9779 -0.471268 -2.23442e-19)
(39.961 -0.486614 2.27364e-19)
(39.9648 -0.51183 -3.66541e-19)
(39.9456 -0.532663 -1.24218e-19)
(39.9487 -0.560948 1.25825e-19)
(39.93 -0.588977 -5.56454e-19)
(39.9277 -0.620105 -1.55563e-21)
(39.9124 -0.656266 -1.77771e-21)
(39.9033 -0.690734 4.93233e-19)
(39.8854 -0.728069 -6.81087e-19)
(39.8822 -0.771881 1.80105e-19)
(39.8492 -0.807829 -1.87424e-19)
(39.857 -0.863213 2.06417e-19)
(39.8156 -0.89772 -2.14138e-19)
(39.8196 -0.95852 2.23189e-19)
(39.7818 -0.995662 0)
(39.777 -1.06703 -2.45802e-19)
(39.7495 -1.10433 0)
(39.7228 -1.18509 2.74674e-19)
(39.7062 -1.23096 -3.01025e-19)
(39.6726 -1.31145 6.41662e-19)
(39.6412 -1.37021 -3.26556e-19)
(39.627 -1.46138 3.46691e-19)
(39.562 -1.52134 -7.51186e-19)
(39.5674 -1.62718 4.00694e-19)
(39.4898 -1.70565 4.48109e-19)
(39.4841 -1.81092 9.09628e-19)
(39.4127 -1.91161 -4.86959e-19)
(39.3875 -2.02927 1.0552e-18)
(39.3283 -2.15478 -3.25062e-19)
(39.2569 -2.27738 5.97856e-19)
(39.2377 -2.43077 -3.40672e-19)
(39.1099 -2.59727 -3.5282e-19)
(39.0973 -2.74475 3.69053e-19)
(38.9647 -2.97137 -8.35262e-19)
(38.9072 -3.12984 4.29302e-19)
(38.7864 -3.42241 4.43147e-19)
(38.6831 -3.60702 -3.9556e-20)
(38.5438 -3.9339 5.45819e-19)
(38.4355 -4.22102 6.96457e-19)
(38.2256 -4.5561 -5.48906e-19)
(38.0831 -4.90098 0)
(37.8809 -5.37874 7.18471e-19)
(37.6485 -5.67817 9.32925e-19)
(37.4727 -6.35559 8.48433e-19)
(37.1664 -6.83937 0)
(36.8605 -7.67635 1.00982e-18)
(36.6166 -8.60937 -1.41922e-18)
(40.0003 -0.00052733 1.73273e-21)
(40.0005 -0.00107476 2.31372e-19)
(40.001 -0.00137953 1.20318e-19)
(40.001 -0.00214099 0)
(40.0003 -0.00253647 8.06476e-21)
(39.9994 -0.00369061 -7.72507e-21)
(39.9989 -0.00599853 -1.40072e-19)
(39.999 -0.00990103 1.73311e-20)
(39.9984 -0.0158326 -3.75482e-20)
(39.9982 -0.0231332 -2.83152e-23)
(39.9982 -0.0316544 -1.40951e-19)
(39.9999 -0.0409299 1.6712e-19)
(39.9999 -0.0496096 1.74547e-19)
(40.002 -0.0583703 -1.81192e-19)
(40.0018 -0.0660774 0)
(40.0046 -0.072751 -9.76049e-20)
(40.005 -0.0783813 2.52402e-20)
(40.0077 -0.0832074 -5.23636e-20)
(40.0081 -0.0876778 2.71531e-20)
(40.0113 -0.0918514 0)
(40.0112 -0.095497 2.93032e-20)
(40.0144 -0.0987389 -9.12262e-20)
(40.014 -0.101288 1.26306e-19)
(40.0154 -0.10448 -6.55402e-20)
(40.015 -0.107137 -1.3575e-19)
(40.0139 -0.111457 0)
(40.0142 -0.118755 -7.45997e-20)
(40.0136 -0.128749 -2.31228e-19)
(40.0112 -0.139202 -1.60887e-19)
(40.0137 -0.154535 0)
(40.0092 -0.166996 -1.71956e-19)
(40.0114 -0.184008 0)
(40.0086 -0.197048 -1.86461e-19)
(40.0074 -0.214407 2.95262e-19)
(40.0083 -0.228328 5.15876e-22)
(40.0022 -0.241807 1.08478e-19)
(40.006 -0.257917 1.11305e-19)
(39.9983 -0.268934 -2.31661e-19)
(40.0004 -0.283074 2.38904e-19)
(39.9939 -0.293034 -3.203e-21)
(39.9943 -0.307515 1.31454e-19)
(39.9895 -0.316449 1.81267e-21)
(39.9868 -0.328571 -1.04321e-21)
(39.9832 -0.340779 1.52366e-19)
(39.9758 -0.350226 1.55822e-19)
(39.9758 -0.365191 -1.62974e-19)
(39.9639 -0.375159 0)
(39.9629 -0.385518 0)
(39.9539 -0.40317 0)
(39.9435 -0.411834 2.97602e-19)
(39.9425 -0.431121 3.14765e-19)
(39.9245 -0.443199 -2.22193e-19)
(39.9258 -0.464381 4.57559e-19)
(39.9074 -0.477035 0)
(39.9039 -0.500657 1.18812e-19)
(39.8891 -0.524802 -1.32265e-19)
(39.8755 -0.543836 2.74997e-19)
(39.8692 -0.580204 -1.49769e-19)
(39.8457 -0.599243 0)
(39.8428 -0.644757 0)
(39.8145 -0.665144 -1.6872e-19)
(39.8072 -0.713796 -1.85349e-19)
(39.7858 -0.740913 0)
(39.759 -0.784485 -3.12846e-21)
(39.7565 -0.835291 -4.22838e-19)
(39.7121 -0.863137 0)
(39.711 -0.925049 0)
(39.6705 -0.958341 2.56827e-19)
(39.654 -1.02772 2.8196e-19)
(39.6249 -1.05993 4.92907e-21)
(39.5917 -1.13627 -2.94796e-19)
(39.5709 -1.18462 -5.94011e-21)
(39.5287 -1.25165 -3.47946e-19)
(39.4995 -1.31756 -3.69693e-19)
(39.4652 -1.39259 7.80479e-19)
(39.4122 -1.46127 8.95036e-21)
(39.3887 -1.54812 -4.40037e-19)
(39.3173 -1.63333 -4.58521e-19)
(39.2877 -1.72437 -5.15621e-19)
(39.2128 -1.81728 -2.97681e-19)
(39.1668 -1.94038 -5.77526e-19)
(39.0948 -2.03539 5.94353e-19)
(39.0149 -2.17802 -3.5464e-19)
(38.9637 -2.29203 -2.19748e-20)
(38.835 -2.46391 8.02693e-19)
(38.7947 -2.5969 0)
(38.6479 -2.79795 9.25774e-19)
(38.573 -2.94819 5.10341e-19)
(38.4401 -3.21703 -1.11407e-18)
(38.3193 -3.38904 0)
(38.1709 -3.68637 0)
(38.039 -3.93788 9.20002e-20)
(37.8529 -4.312 -1.56302e-18)
(37.6936 -4.55626 0)
(37.4936 -5.12345 -9.66945e-19)
(37.2554 -5.44435 5.60785e-20)
(37.0124 -6.1349 0)
(36.6588 -6.73288 0)
(36.2781 -7.43864 1.57026e-18)
(35.755 -8.41102 1.47646e-18)
(40.0004 -0.000745508 0)
(40.0005 -0.00136878 -1.1677e-19)
(40.0011 -0.00180137 3.79193e-21)
(40.001 -0.00254464 3.9146e-21)
(40 -0.00289561 -8.11305e-21)
(39.9989 -0.00394919 -2.71703e-19)
(39.9983 -0.00644781 2.81754e-19)
(39.9986 -0.0109937 1.45659e-19)
(39.9974 -0.0181993 0)
(39.9971 -0.0266058 0)
(39.9976 -0.0368987 0)
(39.9992 -0.0476282 0)
(39.9995 -0.0579528 -1.75206e-19)
(40.0006 -0.0676874 1.8189e-19)
(40.0007 -0.0761407 0)
(40.0032 -0.0831035 7.33812e-20)
(40.0035 -0.0886736 2.55035e-20)
(40.0056 -0.0931579 0)
(40.0055 -0.0970117 0)
(40.0079 -0.10096 2.86154e-20)
(40.0086 -0.103624 -1.49021e-19)
(40.009 -0.107281 0)
(40.009 -0.109502 0)
(40.0095 -0.112606 1.34111e-19)
(40.0093 -0.11484 -3.47361e-20)
(40.0085 -0.118308 -1.29286e-22)
(40.0074 -0.1234 3.55851e-20)
(40.0066 -0.134105 1.94369e-19)
(40.0033 -0.14447 1.2111e-19)
(40.0062 -0.16061 -8.49501e-20)
(40.0011 -0.173381 1.76638e-19)
(40.003 -0.191878 -9.1829e-20)
(39.9996 -0.205417 9.73073e-20)
(39.998 -0.222756 -9.87217e-20)
(39.9981 -0.238702 -1.04681e-19)
(39.9915 -0.251092 -1.0746e-19)
(39.9939 -0.268487 -1.148e-19)
(39.9857 -0.279839 0)
(39.9865 -0.29346 1.25391e-19)
(39.9786 -0.306378 1.28474e-19)
(39.9783 -0.31749 0)
(39.9711 -0.331206 1.43463e-19)
(39.9679 -0.339212 1.49927e-19)
(39.9619 -0.355984 -3.10199e-19)
(39.9534 -0.364138 2.46505e-19)
(39.9505 -0.379038 7.40497e-22)
(39.9372 -0.390268 -1.7871e-19)
(39.9342 -0.402826 9.32745e-20)
(39.9226 -0.41939 -9.87778e-20)
(39.9126 -0.428296 -1.00649e-19)
(39.9066 -0.449585 -1.02123e-19)
(39.8891 -0.464558 3.37433e-19)
(39.8876 -0.481186 7.89108e-21)
(39.8692 -0.504335 2.55001e-19)
(39.86 -0.519594 3.95996e-19)
(39.8515 -0.54885 2.78191e-19)
(39.8276 -0.566493 -2.93534e-19)
(39.8297 -0.60193 1.50144e-19)
(39.7963 -0.624615 -1.62899e-19)
(39.7982 -0.666242 1.67191e-19)
(39.7611 -0.690467 -1.79286e-19)
(39.7579 -0.742228 1.87488e-19)
(39.7265 -0.764359 -2.04586e-19)
(39.7028 -0.818858 6.43298e-19)
(39.6935 -0.864817 -2.33244e-19)
(39.6428 -0.894941 -2.42112e-19)
(39.642 -0.961857 2.48251e-19)
(39.5926 -0.997568 -5.4893e-19)
(39.5727 -1.06685 -2.81355e-19)
(39.5413 -1.10309 3.16296e-19)
(39.4937 -1.18026 -3.18112e-19)
(39.4804 -1.23456 0)
(39.4116 -1.30559 7.34757e-19)
(39.3981 -1.36624 8.70973e-21)
(39.332 -1.4537 -8.48792e-19)
(39.29 -1.52455 4.59996e-19)
(39.2422 -1.60647 9.73626e-19)
(39.1699 -1.70392 -1.04448e-18)
(39.1311 -1.80061 2.61956e-19)
(39.0369 -1.88508 9.09614e-19)
(38.9936 -2.03084 -3.20299e-19)
(38.8953 -2.10519 -1.97856e-20)
(38.8175 -2.28203 3.39594e-19)
(38.7445 -2.37314 -4.27698e-19)
(38.6079 -2.5621 2.80458e-20)
(38.5526 -2.70083 -4.74048e-19)
(38.3873 -2.89799 -1.05057e-18)
(38.2969 -3.06532 -6.0302e-19)
(38.1434 -3.31666 -6.72495e-20)
(37.9874 -3.50691 -6.99839e-19)
(37.8219 -3.8109 7.36956e-19)
(37.6418 -4.03802 9.70555e-20)
(37.4085 -4.43467 8.58322e-19)
(37.1865 -4.67996 0)
(36.9043 -5.19625 0)
(36.5784 -5.4944 1.28014e-18)
(36.2168 -6.08882 8.48952e-19)
(35.7974 -6.56194 7.80999e-20)
(35.3465 -7.19046 -1.62955e-18)
(34.7127 -7.95711 1.05891e-18)
(40.0004 -0.000887833 1.75494e-21)
(40.0005 -0.00147764 1.20363e-19)
(40.0009 -0.00201632 -1.26372e-19)
(40.0006 -0.0025659 0)
(39.9995 -0.00269568 -1.31822e-19)
(39.9978 -0.00374833 1.36509e-19)
(39.9976 -0.00620113 -1.41514e-19)
(39.9977 -0.0114423 1.47713e-19)
(39.9967 -0.01915 0)
(39.9958 -0.0287973 0)
(39.9962 -0.0400505 8.27307e-20)
(39.9968 -0.0515051 0)
(39.9973 -0.0625046 2.22335e-20)
(39.9972 -0.0728234 5.40821e-23)
(39.9974 -0.0808172 4.98066e-23)
(39.999 -0.0877998 -1.24737e-19)
(39.9988 -0.0929426 -1.03768e-19)
(39.9997 -0.0970476 0)
(39.9987 -0.100064 2.79322e-20)
(40.0009 -0.103419 -1.45428e-19)
(40.0004 -0.105463 1.19856e-19)
(40.0012 -0.108301 -3.13498e-20)
(39.9994 -0.110328 -1.04183e-22)
(39.9989 -0.113073 -1.00901e-19)
(39.9976 -0.114832 0)
(39.9953 -0.118274 0)
(39.9934 -0.122586 1.8959e-19)
(39.9905 -0.132736 -2.39137e-19)
(39.9863 -0.143192 4.13843e-20)
(39.9864 -0.159801 4.33229e-20)
(39.9802 -0.172543 4.58416e-20)
(39.9799 -0.19154 0)
(39.9741 -0.205472 -1.94563e-19)
(39.9715 -0.222885 5.13136e-20)
(39.9692 -0.238302 5.44656e-20)
(39.9624 -0.251194 1.12588e-19)
(39.9609 -0.269188 1.1549e-19)
(39.9535 -0.280059 -6.11652e-20)
(39.95 -0.293207 -6.26723e-20)
(39.9435 -0.308176 -1.34794e-19)
(39.9375 -0.317055 -1.41105e-19)
(39.9332 -0.330544 -2.18841e-19)
(39.9217 -0.338245 -7.24929e-20)
(39.9202 -0.354479 2.39669e-19)
(39.9061 -0.360141 -8.21734e-20)
(39.9015 -0.374848 0)
(39.8907 -0.383625 -9.30274e-20)
(39.8773 -0.394519 9.66961e-20)
(39.8733 -0.412649 0)
(39.8544 -0.417665 0)
(39.8482 -0.435454 -2.21894e-19)
(39.829 -0.45122 2.39767e-19)
(39.8216 -0.46389 -3.68831e-19)
(39.8042 -0.487167 -2.57878e-19)
(39.7848 -0.499336 -1.30619e-19)
(39.7796 -0.53043 1.46248e-19)
(39.7454 -0.546344 1.52362e-19)
(39.7433 -0.583344 -3.24492e-19)
(39.7104 -0.598364 1.7102e-19)
(39.7012 -0.643948 1.79249e-19)
(39.6663 -0.663466 -3.85777e-19)
(39.6528 -0.71565 0)
(39.6202 -0.737934 0)
(39.5925 -0.783228 -2.22573e-19)
(39.5733 -0.834002 -1.18025e-20)
(39.5239 -0.858334 0)
(39.5158 -0.926183 5.38357e-19)
(39.4584 -0.951968 -3.02956e-19)
(39.4307 -1.02546 0)
(39.3961 -1.05567 1.2794e-20)
(39.3402 -1.12844 -3.47603e-19)
(39.3122 -1.17195 0)
(39.2457 -1.24581 4.15102e-19)
(39.2162 -1.29804 -4.35747e-19)
(39.1342 -1.37784 -1.15513e-20)
(39.1037 -1.43955 1.05515e-20)
(39.0154 -1.52766 -2.75716e-19)
(38.9696 -1.59487 2.90269e-19)
(38.886 -1.70078 2.1828e-22)
(38.803 -1.76047 7.95214e-21)
(38.7427 -1.91042 0)
(38.6165 -1.95969 -4.038e-19)
(38.5569 -2.13331 4.01987e-19)
(38.4303 -2.19746 4.37614e-19)
(38.3077 -2.38855 0)
(38.2201 -2.48759 5.51191e-19)
(38.032 -2.6878 -1.64611e-20)
(37.9426 -2.82341 1.29768e-18)
(37.7317 -3.05016 6.76038e-19)
(37.595 -3.21301 -2.18251e-20)
(37.375 -3.50493 -1.72495e-18)
(37.1884 -3.67264 -9.72492e-19)
(36.9251 -4.05322 1.08093e-18)
(36.6717 -4.26381 -1.14206e-18)
(36.4189 -4.71893 0)
(36.0061 -5.00432 -7.7169e-19)
(35.7842 -5.55465 -1.51721e-18)
(35.2434 -6.02111 1.00992e-18)
(34.8302 -6.754 1.11217e-18)
(34.1147 -7.30885 -1.29587e-18)
(40.0004 -0.000910524 1.15707e-19)
(40.0004 -0.00144308 -1.22951e-19)
(40.0003 -0.00171622 1.10773e-21)
(40 -0.00192921 -1.27613e-19)
(39.9989 -0.00185081 1.23544e-19)
(39.9968 -0.00271764 8.58272e-21)
(39.9968 -0.00486462 0)
(39.9965 -0.0101361 -1.4791e-19)
(39.9957 -0.0188937 -9.67008e-21)
(39.9941 -0.0295245 9.04992e-20)
(39.9943 -0.0420042 -1.45684e-19)
(39.9947 -0.0547428 -2.15856e-20)
(39.9947 -0.0667654 0)
(39.9945 -0.0775032 -9.35342e-20)
(39.994 -0.0861886 9.71927e-20)
(39.995 -0.0931606 1.00234e-19)
(39.9946 -0.0982818 2.35256e-19)
(39.995 -0.102646 -5.43439e-20)
(39.9937 -0.105028 5.64964e-20)
(39.9944 -0.10793 2.34963e-19)
(39.9935 -0.109325 -3.04634e-20)
(39.9934 -0.112134 -1.27308e-19)
(39.9909 -0.11325 -3.30398e-20)
(39.9903 -0.115938 1.72301e-19)
(39.987 -0.117585 1.79568e-19)
(39.9859 -0.120657 -3.71679e-20)
(39.9816 -0.124792 0)
(39.979 -0.133547 1.60999e-19)
(39.9738 -0.144879 0)
(39.9733 -0.160994 4.41663e-20)
(39.9673 -0.174946 -2.7572e-19)
(39.9657 -0.193948 4.78232e-20)
(39.9605 -0.207391 0)
(39.9568 -0.225199 5.24541e-20)
(39.9529 -0.240455 -1.62746e-19)
(39.9471 -0.253603 -5.58931e-20)
(39.9419 -0.270759 -1.80046e-19)
(39.9354 -0.282347 1.26203e-19)
(39.9278 -0.292614 0)
(39.922 -0.310062 1.35605e-19)
(39.9118 -0.316081 2.87042e-19)
(39.9079 -0.331824 1.4864e-19)
(39.8936 -0.337825 -3.94886e-19)
(39.8894 -0.355116 -1.6423e-19)
(39.874 -0.359767 -1.76911e-19)
(39.8669 -0.375675 1.82457e-19)
(39.8533 -0.384777 -1.91712e-19)
(39.8389 -0.393945 -1.08363e-21)
(39.8311 -0.413543 -1.22478e-21)
(39.8106 -0.420112 1.10794e-19)
(39.7993 -0.434584 0)
(39.7834 -0.45603 2.76988e-21)
(39.7649 -0.463124 -1.29147e-19)
(39.7534 -0.488575 -1.40892e-21)
(39.7258 -0.500156 -4.30499e-19)
(39.7205 -0.532204 1.50423e-19)
(39.6848 -0.546058 -1.60954e-19)
(39.6793 -0.584653 3.3485e-19)
(39.645 -0.600608 -1.81584e-19)
(39.6313 -0.647063 1.89166e-19)
(39.5979 -0.664017 4.04178e-19)
(39.5752 -0.716003 0)
(39.5485 -0.742234 0)
(39.5074 -0.784288 0)
(39.493 -0.838082 2.50604e-19)
(39.4347 -0.860843 0)
(39.4241 -0.927683 0)
(39.3581 -0.953824 3.01497e-19)
(39.3388 -1.02791 0)
(39.2767 -1.05082 -1.75924e-19)
(39.2347 -1.13497 7.56196e-19)
(39.1911 -1.17111 1.0045e-20)
(39.1187 -1.24162 -8.49686e-19)
(39.0858 -1.30321 -7.12555e-19)
(38.9953 -1.36914 2.40085e-19)
(38.9595 -1.44118 5.38801e-19)
(38.859 -1.52477 -5.88206e-21)
(38.817 -1.59456 0)
(38.7005 -1.69758 2.4459e-20)
(38.6429 -1.76675 -3.79057e-19)
(38.5385 -1.90419 -4.11133e-19)
(38.4329 -1.9625 8.47512e-19)
(38.3449 -2.14021 -4.57408e-19)
(38.208 -2.20022 5.28849e-19)
(38.0902 -2.40053 0)
(37.9674 -2.48628 0)
(37.7791 -2.70242 0)
(37.6617 -2.83227 -6.95775e-19)
(37.4367 -3.05859 1.83301e-20)
(37.2725 -3.21642 -1.22483e-19)
(37.027 -3.53063 -4.60718e-20)
(36.7988 -3.6705 2.08019e-18)
(36.5274 -4.06586 0)
(36.2167 -4.26284 0)
(35.9295 -4.71598 -1.45866e-20)
(35.4468 -4.98408 -2.00782e-20)
(35.1806 -5.52952 8.11193e-20)
(34.4664 -5.88373 -2.04896e-18)
(34.0282 -6.49586 -2.43156e-18)
(33.132 -7.05021 1.34475e-18)
(40.0002 -0.000805779 -2.28212e-19)
(40.0001 -0.00099869 -9.27447e-22)
(40 -0.000667849 1.26041e-19)
(39.9995 -0.000404259 1.20389e-19)
(39.9983 9.8519e-05 4.18411e-21)
(39.9959 -0.000385827 0)
(39.9954 -0.00236794 0)
(39.9954 -0.00735484 0)
(39.9943 -0.0167373 0)
(39.9922 -0.0287479 -1.61876e-19)
(39.9923 -0.0423048 8.3765e-20)
(39.9919 -0.0561215 0)
(39.9917 -0.0687352 2.26771e-20)
(39.9911 -0.0797587 1.64729e-19)
(39.99 -0.0886169 -1.95625e-19)
(39.9902 -0.0960618 1.01992e-19)
(39.9892 -0.100434 -1.05285e-19)
(39.9886 -0.104675 2.75191e-20)
(39.9868 -0.106239 -1.43252e-19)
(39.9861 -0.108647 -1.1838e-19)
(39.9842 -0.109022 -9.32159e-20)
(39.9829 -0.111111 1.27984e-19)
(39.9797 -0.111508 -3.3374e-20)
(39.9773 -0.113513 -1.38785e-19)
(39.9738 -0.114909 -7.14931e-20)
(39.9696 -0.116507 -7.61558e-20)
(39.9672 -0.121591 0)
(39.9601 -0.127005 0)
(39.9575 -0.140466 4.30756e-20)
(39.9509 -0.153479 -4.47303e-20)
(39.9461 -0.169313 4.60066e-20)
(39.9415 -0.185928 1.47309e-19)
(39.9342 -0.199798 -1.02984e-19)
(39.9293 -0.218025 -5.40859e-20)
(39.9225 -0.231082 -5.56415e-20)
(39.916 -0.246263 0)
(39.9064 -0.26094 1.82575e-19)
(39.9013 -0.274079 -1.25693e-19)
(39.8868 -0.283267 2.69857e-19)
(39.8831 -0.301467 -7.00584e-20)
(39.8679 -0.306086 7.73543e-20)
(39.8626 -0.322334 -7.70579e-20)
(39.8475 -0.326314 1.6065e-19)
(39.839 -0.343493 -8.6917e-20)
(39.824 -0.345912 8.79182e-20)
(39.8113 -0.359521 0)
(39.7999 -0.36926 1.00476e-19)
(39.7801 -0.374427 1.04976e-19)
(39.771 -0.39281 -1.09169e-19)
(39.7484 -0.397875 1.16463e-19)
(39.7339 -0.407404 -2.4497e-19)
(39.7181 -0.431161 -1.30586e-19)
(39.6914 -0.435792 1.36536e-19)
(39.6819 -0.460221 -2.89046e-19)
(39.6488 -0.466829 2.98673e-19)
(39.6375 -0.502091 1.64552e-19)
(39.6023 -0.511877 -5.10495e-19)
(39.5905 -0.548514 -4.97546e-21)
(39.5506 -0.559624 1.92958e-19)
(39.5346 -0.605833 2.04623e-19)
(39.4943 -0.619525 -2.08677e-19)
(39.4695 -0.667937 0)
(39.4369 -0.690809 0)
(39.3911 -0.724635 -5.20862e-19)
(39.3723 -0.779694 2.65679e-19)
(39.3096 -0.79508 -5.81381e-19)
(39.2909 -0.860934 -4.69998e-19)
(39.2269 -0.882005 3.27008e-19)
(39.1934 -0.950889 -3.57873e-19)
(39.1345 -0.974026 3.84138e-19)
(39.0849 -1.04478 3.04906e-21)
(39.0268 -1.08252 4.38346e-19)
(38.9634 -1.15045 0)
(38.9025 -1.20303 2.4361e-19)
(38.8206 -1.26129 0)
(38.7709 -1.33769 3.00644e-19)
(38.6499 -1.3916 -3.24914e-19)
(38.6088 -1.48598 3.4526e-19)
(38.4727 -1.54432 -7.1708e-19)
(38.4151 -1.63186 7.98437e-19)
(38.2717 -1.7424 -3.0718e-20)
(38.176 -1.7945 0)
(38.0514 -1.95569 -1.05319e-18)
(37.9012 -1.99683 1.09204e-20)
(37.7711 -2.19022 -6.24525e-19)
(37.6116 -2.23905 1.34162e-18)
(37.414 -2.44656 -7.20764e-19)
(37.2718 -2.54739 0)
(37.0112 -2.74929 -8.56231e-19)
(36.8293 -2.87234 9.44934e-19)
(36.5726 -3.15198 0)
(36.2805 -3.2586 1.24641e-18)
(36.0336 -3.59375 -6.13725e-19)
(35.6631 -3.77638 0)
(35.3451 -4.10702 1.68929e-18)
(34.9183 -4.39228 9.91094e-19)
(34.5168 -4.75619 -1.10708e-18)
(33.9215 -5.14686 -8.84145e-20)
(33.4798 -5.62924 4.21148e-18)
(32.6212 -6.16206 -1.5616e-18)
(40 -0.000489922 1.13396e-19)
(40 -0.000275698 0)
(40.0001 0.00119074 0)
(39.9993 0.00231077 0)
(39.9975 0.00341592 6.79734e-20)
(39.9949 0.00323828 -8.80713e-21)
(39.9942 0.0015001 9.08662e-21)
(39.9943 -0.00289542 0)
(39.9921 -0.0128237 0)
(39.9903 -0.0259385 9.15842e-20)
(39.9889 -0.0406052 -1.06064e-19)
(39.9886 -0.0552585 2.19912e-20)
(39.9876 -0.0684484 9.15929e-20)
(39.9864 -0.0801788 -1.77924e-19)
(39.9851 -0.0889131 -2.51785e-20)
(39.9842 -0.0962395 5.85537e-22)
(39.9826 -0.100339 -2.67223e-20)
(39.9811 -0.104086 1.39005e-19)
(39.9787 -0.105127 1.44006e-19)
(39.9769 -0.10675 -2.99837e-20)
(39.9742 -0.106071 1.24542e-19)
(39.972 -0.107023 -6.52571e-20)
(39.9677 -0.106249 -3.4051e-20)
(39.9647 -0.107069 -3.52636e-20)
(39.9592 -0.108238 -7.33244e-20)
(39.9547 -0.108924 1.53473e-19)
(39.9504 -0.114138 -4.01644e-20)
(39.943 -0.118376 4.14998e-20)
(39.9399 -0.13227 0)
(39.9304 -0.141428 0)
(39.9274 -0.161217 0)
(39.9192 -0.175086 -9.89596e-20)
(39.9116 -0.190521 -5.38343e-20)
(39.9074 -0.209759 2.72267e-19)
(39.895 -0.218912 0)
(39.8921 -0.239813 5.99635e-20)
(39.8787 -0.248789 -6.22717e-20)
(39.8727 -0.266725 -1.29914e-19)
(39.8588 -0.272383 2.54909e-21)
(39.8523 -0.291333 -2.17961e-19)
(39.836 -0.29467 -1.50766e-19)
(39.8278 -0.311625 1.59542e-19)
(39.8112 -0.313206 4.03189e-22)
(39.8015 -0.329973 3.49572e-19)
(39.7838 -0.33107 9.3517e-20)
(39.7697 -0.34627 9.79069e-20)
(39.7559 -0.351444 -9.92187e-20)
(39.7343 -0.360163 1.08605e-19)
(39.7237 -0.37293 2.20612e-21)
(39.6983 -0.381621 0)
(39.6804 -0.388186 -2.8206e-21)
(39.6654 -0.410826 1.2863e-19)
(39.634 -0.412919 1.43333e-19)
(39.6218 -0.439334 1.45974e-19)
(39.5898 -0.442702 -1.59526e-19)
(39.5733 -0.474247 -1.63781e-19)
(39.5373 -0.481487 -6.42217e-21)
(39.5198 -0.519927 3.7488e-19)
(39.4787 -0.528845 -1.94595e-19)
(39.4608 -0.573087 8.43291e-21)
(39.4147 -0.58447 0)
(39.3878 -0.634683 2.41091e-19)
(39.3495 -0.654755 -2.51451e-19)
(39.3002 -0.691595 5.38216e-19)
(39.2774 -0.743404 -3.79115e-21)
(39.2088 -0.756661 1.41938e-19)
(39.1862 -0.824457 3.25545e-19)
(39.1126 -0.843276 -3.53936e-19)
(39.0848 -0.913073 -1.90283e-19)
(38.9989 -0.932806 2.78463e-21)
(38.9696 -1.00577 8.73588e-21)
(38.8787 -1.03877 -2.19913e-19)
(38.8262 -1.10485 -5.03655e-19)
(38.7465 -1.1489 2.736e-19)
(38.6645 -1.22452 -2.86424e-19)
(38.5903 -1.26306 -3.04604e-19)
(38.4794 -1.34923 3.2933e-19)
(38.4153 -1.40804 7.53009e-19)
(38.271 -1.48735 -7.98354e-19)
(38.2018 -1.55828 6.69741e-21)
(38.0467 -1.65119 4.55713e-19)
(37.9519 -1.72006 6.64466e-21)
(37.795 -1.85637 5.19526e-19)
(37.6588 -1.90054 -2.41478e-20)
(37.506 -2.07943 6.57577e-19)
(37.3333 -2.13039 3.81038e-19)
(37.1398 -2.31963 8.28579e-19)
(36.9729 -2.428 -1.33564e-18)
(36.7263 -2.59942 0)
(36.4964 -2.74945 5.59683e-19)
(36.2777 -2.96484 -5.91507e-19)
(35.9203 -3.12824 6.99034e-19)
(35.7047 -3.38079 5.78237e-20)
(35.2722 -3.62721 0)
(34.9543 -3.87513 -9.05904e-19)
(34.4918 -4.22377 -2.11836e-18)
(34.0322 -4.52615 5.62398e-21)
(33.4454 -4.88292 2.62428e-18)
(32.8487 -5.41528 -1.49814e-18)
(32.0275 -5.68145 3.61321e-18)
(39.9998 -9.48331e-05 0)
(39.9998 0.000830226 5.9937e-20)
(40 0.00396927 0)
(39.999 0.00612152 0)
(39.9968 0.00790694 -7.23763e-20)
(39.9939 0.00822536 7.08505e-20)
(39.9931 0.00678099 4.56971e-21)
(39.9924 0.00293356 0)
(39.9902 -0.00696774 0)
(39.9874 -0.0211928 0)
(39.9859 -0.0365435 8.50782e-20)
(39.9847 -0.0518917 0)
(39.983 -0.0657709 -1.8386e-19)
(39.9812 -0.0776867 -3.25609e-22)
(39.9792 -0.0861081 9.91894e-20)
(39.9775 -0.0928896 -5.13725e-20)
(39.9752 -0.0964492 4.03785e-20)
(39.973 -0.0995653 -9.76365e-20)
(39.9699 -0.0997232 5.8347e-20)
(39.9671 -0.100676 0)
(39.9636 -0.0988473 0)
(39.9598 -0.0980797 6.55526e-20)
(39.9557 -0.096854 6.83116e-20)
(39.9493 -0.095435 0)
(39.9456 -0.0969386 -7.45039e-20)
(39.9373 -0.0959724 -1.54878e-19)
(39.9341 -0.101476 -1.21882e-19)
(39.9238 -0.104629 4.19936e-20)
(39.9201 -0.117307 -4.44177e-20)
(39.9099 -0.126162 -4.61917e-20)
(39.9038 -0.145976 0)
(39.8956 -0.157684 -1.01914e-19)
(39.8858 -0.173666 1.05351e-19)
(39.879 -0.191911 -1.6601e-19)
(39.8667 -0.199692 -5.90992e-20)
(39.8601 -0.22114 0)
(39.8463 -0.227268 0)
(39.8382 -0.246132 1.3487e-19)
(39.823 -0.250809 -2.09375e-19)
(39.8129 -0.268592 2.20628e-19)
(39.7966 -0.270078 8.69088e-22)
(39.7856 -0.287072 -1.61702e-19)
(39.7679 -0.286344 -2.57669e-19)
(39.7552 -0.30245 -9.06465e-20)
(39.736 -0.299475 -9.3977e-20)
(39.72 -0.315298 0)
(39.7027 -0.313944 2.00115e-21)
(39.6805 -0.326916 -2.22487e-19)
(39.6642 -0.329124 7.15234e-22)
(39.6384 -0.344175 0)
(39.6155 -0.343752 -1.31763e-19)
(39.5979 -0.365592 4.12392e-19)
(39.5622 -0.364794 -2.91265e-19)
(39.5455 -0.389334 3.09894e-19)
(39.5103 -0.395004 -2.17836e-21)
(39.4869 -0.418768 4.05987e-21)
(39.4531 -0.426487 3.68546e-19)
(39.4209 -0.460718 -1.92366e-19)
(39.3876 -0.467408 0)
(39.3537 -0.508459 7.27692e-21)
(39.3103 -0.51512 3.25011e-21)
(39.2774 -0.562697 0)
(39.2335 -0.576512 0)
(39.1815 -0.613526 0)
(39.1523 -0.65133 1.5378e-19)
(39.081 -0.668042 -1.71566e-21)
(39.05 -0.726259 -1.7743e-19)
(38.9786 -0.740403 -6.75069e-21)
(38.9349 -0.798793 -6.86202e-21)
(38.8581 -0.815921 2.18892e-19)
(38.8104 -0.890153 0)
(38.7203 -0.892033 0)
(38.6665 -0.979364 2.58719e-19)
(38.5679 -0.987945 0)
(38.4987 -1.07971 3.15755e-19)
(38.395 -1.0832 -3.30808e-19)
(38.3128 -1.18387 0)
(38.1985 -1.20983 -3.87241e-19)
(38.0864 -1.29156 -2.01513e-19)
(37.9912 -1.34886 2.39648e-19)
(37.8211 -1.4157 0)
(37.7388 -1.50592 3.12417e-19)
(37.5345 -1.57269 -9.05226e-19)
(37.4359 -1.66167 0)
(37.2089 -1.77016 -7.44083e-19)
(37.0771 -1.84689 3.96912e-19)
(36.8314 -1.96428 4.51406e-19)
(36.6483 -2.10581 -5.04348e-19)
(36.3843 -2.18826 1.08134e-18)
(36.14 -2.36046 -2.96572e-21)
(35.8657 -2.50104 -6.47417e-19)
(35.5072 -2.65899 4.78677e-20)
(35.238 -2.82248 -7.96939e-19)
(34.7803 -3.06941 9.51156e-19)
(34.4261 -3.22463 1.1292e-18)
(33.9208 -3.49837 -9.23155e-21)
(33.4531 -3.79261 -1.27713e-18)
(32.799 -3.94362 1.54808e-18)
(32.2969 -4.48569 -3.30449e-18)
(31.3719 -4.59849 -3.9893e-18)
(39.9996 0.00025709 -5.786e-20)
(39.9996 0.00248476 -1.89244e-21)
(39.9998 0.00746611 1.98631e-21)
(39.9986 0.0109725 0)
(39.996 0.0136316 0)
(39.993 0.0146393 -6.65399e-20)
(39.9917 0.0135485 -9.17071e-21)
(39.9906 0.0101892 -7.08758e-20)
(39.988 0.000934437 0)
(39.9847 -0.0140562 1.03074e-20)
(39.9828 -0.0299748 -1.06819e-20)
(39.9808 -0.0459244 4.4399e-20)
(39.9785 -0.0599302 9.22682e-20)
(39.9758 -0.0717741 9.59329e-20)
(39.9734 -0.0795322 0)
(39.9707 -0.0857592 -5.18756e-20)
(39.9679 -0.088626 -5.3968e-20)
(39.9648 -0.0914743 0)
(39.9612 -0.0913349 -5.84854e-20)
(39.9572 -0.0905335 0)
(39.9535 -0.0880962 -6.36063e-20)
(39.948 -0.0836003 0)
(39.9429 -0.0836362 0)
(39.9353 -0.0789717 1.80742e-20)
(39.9306 -0.0801855 5.60721e-20)
(39.9208 -0.0781186 7.80543e-20)
(39.9164 -0.084082 8.17246e-20)
(39.9057 -0.0860088 -4.27992e-20)
(39.9 -0.0982724 4.45209e-20)
(39.8898 -0.10522 0)
(39.8816 -0.124511 0)
(39.8722 -0.135507 1.02291e-19)
(39.8615 -0.150723 -5.35901e-20)
(39.8521 -0.167096 -5.66267e-20)
(39.839 -0.175247 5.8064e-20)
(39.8307 -0.19658 6.16868e-20)
(39.8156 -0.201068 0)
(39.8052 -0.21978 -6.77646e-20)
(39.7898 -0.222519 0)
(39.7777 -0.240592 9.78832e-24)
(39.7602 -0.240271 1.58557e-19)
(39.7477 -0.256234 0)
(39.7287 -0.253245 4.2733e-20)
(39.7137 -0.26914 9.07883e-20)
(39.6929 -0.264739 4.83549e-20)
(39.6767 -0.280337 1.54984e-19)
(39.6541 -0.274386 -5.36737e-20)
(39.6354 -0.29118 5.76562e-20)
(39.6122 -0.285701 5.9866e-20)
(39.5895 -0.302463 0)
(39.5622 -0.301175 0)
(39.5422 -0.314581 -6.88382e-20)
(39.5077 -0.324635 -1.51072e-19)
(39.4859 -0.328244 7.93322e-20)
(39.4537 -0.350534 8.15492e-20)
(39.4183 -0.355175 -1.77478e-19)
(39.395 -0.379168 -9.15599e-20)
(39.3474 -0.389798 -1.02696e-19)
(39.3225 -0.406567 1.07048e-19)
(39.2787 -0.441544 -1.13507e-19)
(39.2382 -0.444893 -2.41748e-19)
(39.2008 -0.487658 0)
(39.1534 -0.497859 1.41572e-19)