/*--------------------------------*- C++ -*----------------------------------*\
| =========                 |                                                 |
| \\      /  F ield         | OpenFOAM: The Open Source CFD Toolbox           |
|  \\    /   O peration     | Version:  2.3.1                                 |
|   \\  /    A nd           | Web:      www.OpenFOAM.org                      |
|    \\/     M anipulation  |                                                 |
\*---------------------------------------------------------------------------*/
FoamFile
{
    version     2.0;
    format      ascii;
    class       volVectorField;
    location    "1000";
    object      U_0;
}
// * * * * * * * * * * * * * * * * * * * * * * * * * * * * * * * * * * * * * //

dimensions      [0 1 -1 0 0 0 0];

internalField   nonuniform List<vector> 
4825
(
(10 -0.000154439 0)
(10.0003 -0.000483001 -6.13367e-22)
(10.0004 -0.000829165 4.15399e-23)
(10.0004 -0.00132267 -1.12405e-22)
(10.0003 -0.00234326 -2.21875e-25)
(10.0009 -0.00477772 -8.4873e-22)
(10.0014 -0.00795439 -7.65321e-22)
(10.0023 -0.0102827 9.41362e-22)
(10.0037 -0.0126306 0)
(10.0042 -0.0149866 1.09076e-21)
(10.0057 -0.0163798 6.21036e-22)
(10.0061 -0.018811 0)
(10.0059 -0.0217025 7.29383e-22)
(10.007 -0.0248879 0)
(10.0072 -0.0296782 0)
(10.0069 -0.03605 -1.31228e-21)
(10.0087 -0.0420188 1.97213e-21)
(10.0086 -0.0460311 -5.20432e-22)
(10.0095 -0.0519576 0)
(10.0095 -0.0559921 0)
(10.0121 -0.0616055 1.97497e-21)
(10.0094 -0.066409 5.18691e-23)
(10.013 -0.0724577 0)
(10.0092 -0.0778538 -8.42438e-22)
(10.0112 -0.0852012 0)
(10.0085 -0.0926681 0)
(10.0046 -0.101767 2.37049e-21)
(10.0074 -0.116079 0)
(10.0008 -0.125706 1.55052e-21)
(10.0017 -0.140425 2.65005e-22)
(9.99727 -0.156418 -9.64195e-22)
(9.99281 -0.169872 1.76303e-21)
(9.9929 -0.193613 -2.29594e-21)
(9.97958 -0.209934 2.38636e-21)
(9.98834 -0.237985 -1.65331e-21)
(9.96915 -0.255569 -1.74558e-21)
(9.96599 -0.294857 -1.45714e-21)
(9.95858 -0.318511 -2.24656e-21)
(9.94302 -0.370955 4.41761e-21)
(9.93154 -0.401032 -2.98888e-21)
(9.92516 -0.469827 0)
(9.89978 -0.519881 2.03912e-21)
(9.89545 -0.606917 -2.41571e-21)
(9.8492 -0.699475 0)
(9.8341 -0.819687 2.66903e-21)
(9.74398 -0.952501 -2.94524e-21)
(9.74088 -1.15477 2.89188e-21)
(9.59299 -1.37397 6.2597e-21)
(9.60377 -1.69557 0)
(9.40462 -2.0819 1.89529e-21)
(10.0002 -0.000468469 5.88489e-22)
(10.0007 -0.00117737 -6.37286e-22)
(10.0006 -0.00193092 -7.55489e-22)
(10.0007 -0.00321929 -1.46016e-21)
(10.0006 -0.0061579 -1.01681e-22)
(10.0017 -0.0102831 1.07429e-21)
(10.002 -0.0142212 -6.08092e-22)
(10.0033 -0.0176149 0)
(10.0042 -0.0201137 -5.73752e-22)
(10.0047 -0.0218441 0)
(10.0054 -0.0235299 -6.27049e-22)
(10.006 -0.0264627 0)
(10.0058 -0.0298406 -7.3708e-22)
(10.0071 -0.0348551 0)
(10.0073 -0.0404608 1.39865e-21)
(10.0071 -0.0464976 -4.87984e-22)
(10.0085 -0.0526148 -1.02134e-21)
(10.0068 -0.0578196 -5.88606e-22)
(10.0069 -0.0642539 1.27778e-21)
(10.0063 -0.0702913 -1.39881e-21)
(10.0049 -0.0771571 7.60496e-22)
(10.0024 -0.0826323 -7.95823e-22)
(10.0025 -0.0911963 0)
(9.99727 -0.0968266 0)
(9.99758 -0.107399 1.78523e-21)
(9.99164 -0.115555 -6.15124e-22)
(9.99064 -0.12787 -2.09549e-21)
(9.98619 -0.145088 -1.60294e-21)
(9.97894 -0.155835 -1.5844e-21)
(9.9799 -0.173523 2.79045e-22)
(9.96428 -0.191754 -7.435e-23)
(9.96609 -0.209787 -1.35794e-21)
(9.95502 -0.235048 1.24117e-21)
(9.9407 -0.255429 0)
(9.94069 -0.289012 1.56951e-21)
(9.91503 -0.310403 4.13651e-21)
(9.9128 -0.353684 0)
(9.88905 -0.384893 -8.24246e-22)
(9.87318 -0.441342 -4.55835e-21)
(9.85055 -0.479589 9.32939e-22)
(9.8278 -0.556804 -3.26891e-22)
(9.78362 -0.612346 -1.92091e-21)
(9.76726 -0.717622 3.30115e-21)
(9.68717 -0.802307 -3.9242e-21)
(9.66307 -0.936737 4.33673e-21)
(9.57177 -1.0757 6.93795e-21)
(9.5159 -1.25874 -6.58964e-21)
(9.36859 -1.48761 -1.49591e-20)
(9.31257 -1.7516 6.9816e-21)
(9.06194 -2.10632 0)
(10.0003 -0.000749674 -6.10339e-22)
(10.0007 -0.00164507 1.36286e-21)
(10.0004 -0.00242445 -4.57057e-23)
(10.0002 -0.00392062 3.6309e-22)
(9.99976 -0.00744282 0)
(10.0002 -0.0122 1.18097e-22)
(10.0001 -0.0162079 3.66661e-22)
(10.0006 -0.0198536 0)
(10.0008 -0.0220606 5.78263e-22)
(10.0007 -0.0239255 1.63488e-22)
(10.0003 -0.0254829 1.77731e-24)
(10.001 -0.0283107 -9.93285e-22)
(9.99866 -0.031448 8.77373e-22)
(9.99951 -0.0367321 4.79625e-22)
(9.99723 -0.0426047 -9.55075e-22)
(9.99589 -0.0483634 -5.76238e-22)
(9.99568 -0.0550892 0)
(9.9917 -0.0589527 3.31495e-22)
(9.99194 -0.0651098 4.09179e-22)
(9.9873 -0.0711244 -4.01875e-22)
(9.98564 -0.0756649 8.77219e-22)
(9.98226 -0.0817939 -9.69993e-22)
(9.97752 -0.0884887 5.30531e-22)
(9.97362 -0.0927585 0)
(9.96824 -0.103463 -1.23608e-21)
(9.96369 -0.110767 -8.10728e-22)
(9.95553 -0.121169 1.53512e-21)
(9.95087 -0.137429 8.59835e-22)
(9.93845 -0.146665 1.16649e-21)
(9.93502 -0.162976 -1.08408e-21)
(9.91972 -0.178967 0)
(9.91111 -0.19622 1.38936e-21)
(9.90048 -0.217705 0)
(9.87667 -0.234553 2.08767e-21)
(9.87254 -0.269455 3.6937e-22)
(9.84065 -0.28298 -2.40385e-21)
(9.82936 -0.325248 0)
(9.79555 -0.347187 3.25096e-21)
(9.7709 -0.403288 -3.68539e-22)
(9.73009 -0.427267 2.04375e-21)
(9.69648 -0.499107 6.01144e-21)
(9.63799 -0.538704 3.59667e-21)
(9.59115 -0.629801 9.23122e-22)
(9.5119 -0.695164 1.20747e-21)
(9.45148 -0.814633 0)
(9.33166 -0.911065 -7.3203e-21)
(9.23898 -1.07271 -2.56878e-21)
(9.07159 -1.23379 1.3122e-20)
(8.90682 -1.47924 -2.77402e-20)
(8.62133 -1.73459 1.01547e-20)
(10.0003 -0.000897762 -1.05565e-23)
(10.0006 -0.00184555 -6.93965e-22)
(10.0002 -0.00253511 8.15632e-22)
(9.9996 -0.00394803 -2.89308e-23)
(9.99914 -0.00759551 -5.80761e-23)
(9.99868 -0.0129756 -4.62005e-22)
(9.99876 -0.0173957 6.99707e-23)
(9.99832 -0.0211548 -7.69988e-22)
(9.99762 -0.0233271 0)
(9.99787 -0.0255756 5.58382e-22)
(9.99603 -0.0270637 3.86634e-22)
(9.9957 -0.0289879 5.98975e-22)
(9.9945 -0.0320034 -8.84414e-22)
(9.9915 -0.03551 4.6916e-23)
(9.99135 -0.041833 2.80349e-22)
(9.98742 -0.0485164 -3.63049e-22)
(9.98554 -0.0545823 3.40037e-22)
(9.98327 -0.0591097 -3.66667e-22)
(9.97794 -0.0638726 9.52735e-23)
(9.97717 -0.0728764 -9.65524e-22)
(9.96972 -0.075524 -5.38173e-22)
(9.9677 -0.0832724 -6.00159e-22)
(9.95918 -0.0866749 0)
(9.9556 -0.0952859 -7.55058e-22)
(9.94714 -0.104962 8.06856e-22)
(9.93956 -0.111131 -1.01295e-21)
(9.93253 -0.117964 0)
(9.92056 -0.136122 0)
(9.91112 -0.149389 -2.5163e-21)
(9.89791 -0.160199 1.44412e-21)
(9.88561 -0.181865 -1.08845e-22)
(9.86725 -0.196762 -1.8975e-21)
(9.85471 -0.214585 -1.23386e-21)
(9.82625 -0.238954 -1.34776e-21)
(9.81449 -0.26867 -1.237e-21)
(9.77461 -0.287972 -1.84134e-21)
(9.75957 -0.322522 2.01481e-21)
(9.70928 -0.349448 -5.3184e-21)
(9.68844 -0.406504 2.82977e-21)
(9.62082 -0.427124 -3.68091e-21)
(9.59605 -0.500266 3.28697e-22)
(9.50469 -0.530983 2.86936e-21)
(9.47266 -0.629226 -3.51313e-21)
(9.35366 -0.687007 1.41584e-21)
(9.28227 -0.799248 1.11614e-21)
(9.15539 -0.906818 -4.99684e-21)
(9.0072 -1.03039 -7.24524e-21)
(8.83328 -1.21531 0)
(8.59857 -1.41636 1.11652e-20)
(8.33856 -1.62639 -3.64455e-21)
(10.0003 -0.000877409 -3.75871e-22)
(10.0002 -0.00147294 -4.06736e-22)
(9.99967 -0.0017918 0)
(9.99888 -0.00281042 -3.0006e-23)
(9.9981 -0.00619628 6.32213e-23)
(9.99721 -0.0118775 1.78371e-22)
(9.9962 -0.0161815 -3.06541e-22)
(9.99571 -0.0199684 1.03975e-21)
(9.99386 -0.0212546 2.77042e-22)
(9.99282 -0.0234477 -7.40918e-22)
(9.99091 -0.0241952 0)
(9.98807 -0.0252414 0)
(9.98662 -0.0288308 -2.56179e-22)
(9.9827 -0.0309578 2.40076e-23)
(9.97961 -0.035972 -3.04014e-22)
(9.97675 -0.0443808 1.0014e-21)
(9.97103 -0.0468488 3.80856e-22)
(9.96839 -0.0528404 -4.10836e-22)
(9.96116 -0.0557134 -8.77302e-22)
(9.95698 -0.0635623 9.92383e-22)
(9.94864 -0.0642013 1.08871e-21)
(9.94326 -0.0694468 -2.79237e-23)
(9.93361 -0.0760537 7.40114e-22)
(9.92513 -0.0783966 -9.03587e-22)
(9.91588 -0.0888543 0)
(9.90234 -0.0965239 2.0656e-21)
(9.89369 -0.101849 -1.21242e-21)
(9.87711 -0.113226 6.94272e-22)
(9.86558 -0.126773 -7.5395e-22)
(9.84411 -0.132025 9.13868e-22)
(9.83166 -0.154804 3.0408e-21)
(9.80366 -0.161824 1.26042e-22)
(9.78601 -0.177212 -1.64466e-22)
(9.75861 -0.197823 3.20571e-21)
(9.72438 -0.2037 2.11424e-22)
(9.70138 -0.245499 0)
(9.64841 -0.246961 0)
(9.62486 -0.284717 1.13051e-21)
(9.56085 -0.315035 -3.85758e-21)
(9.51379 -0.329831 8.88999e-21)
(9.44796 -0.389715 -2.21488e-21)
(9.3734 -0.41604 -2.95787e-21)
(9.29858 -0.476122 -7.00204e-22)
(9.17749 -0.500307 0)
(9.08094 -0.61966 6.63763e-21)
(8.92123 -0.6552 0)
(8.75675 -0.752204 0)
(8.56591 -0.857162 0)
(8.28266 -0.99455 -1.73688e-20)
(8.02674 -1.13395 6.21388e-20)
(10.0001 -0.000402962 1.77652e-22)
(9.99981 -9.30466e-05 6.35723e-22)
(9.99908 0.000242514 -1.41856e-23)
(9.99805 -0.00023205 4.78807e-22)
(9.9971 -0.00267839 -3.3683e-23)
(9.99547 -0.0080282 3.18965e-22)
(9.99416 -0.0123923 2.2778e-22)
(9.99246 -0.0156534 1.41486e-23)
(9.98991 -0.0158974 -3.62283e-22)
(9.98806 -0.0172076 -1.86439e-24)
(9.98505 -0.01722 -4.94025e-24)
(9.98121 -0.0171145 -2.49402e-22)
(9.97889 -0.02035 4.16833e-22)
(9.97398 -0.0212096 0)
(9.96949 -0.0255434 0)
(9.96569 -0.0329216 -3.56123e-22)
(9.95837 -0.0333256 -4.24827e-22)
(9.954 -0.0398096 2.33753e-22)
(9.946 -0.0398611 -2.52337e-22)
(9.9394 -0.047346 -8.43448e-22)
(9.93105 -0.0466601 9.41282e-22)
(9.9214 -0.0509372 1.92324e-23)
(9.91389 -0.0567498 0)
(9.90015 -0.0538595 8.72797e-22)
(9.89134 -0.062637 0)
(9.87627 -0.0700902 -5.62341e-22)
(9.86104 -0.0698676 6.38622e-22)
(9.84913 -0.0848643 8.00523e-22)
(9.82566 -0.0835768 -1.33645e-21)
(9.81138 -0.102722 5.36673e-22)
(9.78497 -0.100807 -1.11074e-21)
(9.76561 -0.124546 -1.29001e-21)
(9.73195 -0.12145 8.41651e-22)
(9.70928 -0.149342 0)
(9.66935 -0.145854 -2.05026e-21)
(9.63874 -0.180562 0)
(9.58696 -0.175842 1.61745e-21)
(9.54939 -0.213428 3.62769e-21)
(9.48628 -0.225557 -2.305e-21)
(9.4257 -0.245642 3.92487e-21)
(9.36099 -0.288237 -6.34287e-21)
(9.26454 -0.299195 3.73594e-21)
(9.1828 -0.361025 4.43708e-21)
(9.06932 -0.359395 0)
(8.92117 -0.443157 -1.06565e-20)
(8.80259 -0.49881 0)
(8.57148 -0.518942 -6.23173e-21)
(8.40897 -0.655425 7.05896e-21)
(8.07817 -0.682236 9.92882e-21)
(7.82662 -0.833601 0)
(10 0.000257029 1.96221e-22)
(9.99965 0.00247169 -1.70568e-22)
(9.99874 0.00383801 -2.97803e-23)
(9.99752 0.00388249 -4.82297e-23)
(9.99632 0.00242842 -3.72756e-25)
(9.99457 -0.00124406 7.53837e-23)
(9.99247 -0.00586659 1.23774e-22)
(9.98991 -0.00669648 -1.76744e-22)
(9.98746 -0.00747875 -1.93211e-22)
(9.98433 -0.00717662 -5.46244e-23)
(9.98083 -0.00504059 1.71093e-22)
(9.97673 -0.00578963 1.95587e-22)
(9.97314 -0.00675901 -2.80107e-22)
(9.967 -0.0057347 -1.59745e-22)
(9.96336 -0.010896 -3.53428e-24)
(9.9565 -0.0116235 9.38476e-23)
(9.95049 -0.0174162 4.23941e-22)
(9.94332 -0.0152482 -1.23126e-22)
(9.93568 -0.0184071 0)
(9.92748 -0.0223977 2.97747e-22)
(9.91757 -0.0177253 0)
(9.90876 -0.0216166 2.17875e-22)
(9.89653 -0.0249191 -6.56289e-22)
(9.8832 -0.0194168 2.44103e-22)
(9.87371 -0.026361 -2.90686e-22)
(9.85446 -0.0274404 1.52017e-22)
(9.8412 -0.0278523 0)
(9.82318 -0.0328068 2.14159e-22)
(9.80293 -0.0395519 9.72571e-22)
(9.78004 -0.0329621 -1.66726e-21)
(9.75846 -0.0519559 6.31585e-22)
(9.72988 -0.0439169 7.85703e-22)
(9.69974 -0.0541677 -1.25706e-21)
(9.67025 -0.0650545 0)
(9.62922 -0.0515228 -1.89644e-21)
(9.58834 -0.0819296 2.82616e-21)
(9.54225 -0.0673222 -2.45525e-21)
(9.49202 -0.0851549 -1.39901e-21)
(9.42558 -0.097864 -1.1698e-21)
(9.36246 -0.0795272 8.69964e-22)
(9.28875 -0.131155 -1.68988e-21)
(9.18639 -0.0962774 -2.27135e-21)
(9.09483 -0.157147 -2.57986e-22)
(8.96755 -0.136376 6.54685e-21)
(8.84439 -0.140523 1.07183e-21)
(8.67546 -0.24231 -5.36471e-21)
(8.46479 -0.160524 9.44913e-21)
(8.29001 -0.260584 -6.10981e-21)
(7.95859 -0.27286 3.37605e-22)
(7.68579 -0.265263 -2.95634e-21)
(10.0001 0.000959793 0)
(9.99969 0.00536334 -1.09287e-22)
(9.99878 0.00809608 1.18112e-22)
(9.99753 0.00897525 0)
(9.99633 0.00846818 0)
(9.99455 0.00624181 -1.5081e-22)
(9.99215 0.00315092 -1.64537e-22)
(9.9897 0.00320483 0)
(9.98703 0.0035302 0)
(9.98367 0.00467697 0)
(9.97998 0.00918775 0)
(9.97615 0.00881344 0)
(9.97131 0.0112988 0)
(9.96612 0.0109586 0)
(9.96133 0.00839313 -1.77029e-22)
(9.95527 0.0106319 0)
(9.94788 0.00617401 2.19356e-22)
(9.94062 0.00922369 2.44981e-22)
(9.93442 0.00822298 0)
(9.92362 0.00801321 0)
(9.91509 0.0144696 0)
(9.90463 0.0105966 -3.90352e-22)
(9.89397 0.0180729 0)
(9.8794 0.0146803 0)
(9.86783 0.0216141 0)
(9.85192 0.0221968 3.25226e-22)
(9.83468 0.0164158 0)
(9.81683 0.0291717 -4.2661e-22)
(9.79685 0.0199623 0)
(9.77472 0.0314111 0)
(9.74915 0.019764 0)
(9.72276 0.0361927 0)
(9.69218 0.0262061 -8.95561e-22)
(9.65635 0.0307096 0)
(9.62096 0.0479886 0)
(9.5774 0.0265992 0)
(9.52618 0.0532223 0)
(9.48046 0.0443562 1.03069e-21)
(9.40979 0.0598198 0)
(9.34577 0.0418169 -1.4851e-21)
(9.26867 0.0924707 0)
(9.16908 0.048758 0)
(9.07601 0.104692 0)
(8.93691 0.0713604 0)
(8.8286 0.0938519 -2.06296e-21)
(8.63392 0.150145 0)
(8.43426 0.0779767 0)
(8.24326 0.1601 -4.15755e-21)
(7.89564 0.14669 0)
(7.6326 0.17218 -6.99128e-21)
(10.0004 0.00155053 1.93106e-22)
(9.99997 0.00755269 -1.41189e-22)
(9.99917 0.0116963 -8.73836e-23)
(9.99823 0.0135559 4.68656e-23)
(9.99726 0.0138759 3.69513e-25)
(9.99584 0.0130856 7.53345e-23)
(9.99376 0.011876 4.17745e-23)
(9.99178 0.0121736 -1.69562e-22)
(9.98941 0.014499 -1.85529e-22)
(9.98632 0.0162061 5.31513e-23)
(9.98327 0.022286 2.24717e-22)
(9.97948 0.0234997 -1.27546e-22)
(9.97541 0.0273531 -2.01814e-22)
(9.97089 0.0277432 7.89709e-23)
(9.96581 0.0271538 1.77915e-22)
(9.96073 0.0308543 -9.13891e-23)
(9.95452 0.0312949 1.96122e-22)
(9.94656 0.0298975 -1.2154e-22)
(9.94211 0.0362531 -1.35798e-22)
(9.93103 0.0376228 4.33191e-22)
(9.92492 0.0432069 0)
(9.91349 0.0438802 -5.57167e-22)
(9.90458 0.0554543 6.40524e-22)
(9.891 0.0536822 -2.38267e-22)
(9.87989 0.0622837 0)
(9.86557 0.0691703 -1.61479e-22)
(9.84838 0.0665549 0)
(9.83458 0.0808382 -2.15112e-22)
(9.81236 0.083547 4.25122e-22)
(9.79193 0.0834145 5.80652e-22)
(9.77219 0.103697 -6.18221e-22)
(9.73899 0.0986264 -7.68642e-22)
(9.71891 0.115388 4.62436e-22)
(9.67918 0.125691 0)
(9.6474 0.126804 1.86174e-21)
(9.61149 0.156103 -2.77511e-21)
(9.55525 0.16104 -7.84376e-22)
(9.51086 0.164926 -2.3986e-21)
(9.4595 0.216162 0)
(9.37306 0.20039 -2.13952e-21)
(9.31329 0.251717 1.66955e-21)
(9.22873 0.263207 2.23566e-21)
(9.11219 0.286959 2.57305e-22)
(9.02199 0.337339 -6.44853e-21)
(8.85388 0.335835 8.61788e-21)
(8.71969 0.448669 5.28441e-21)
(8.51739 0.403742 -5.96697e-21)
(8.32355 0.547029 6.33598e-21)
(7.99562 0.544238 -2.03887e-20)
(7.7416 0.630084 9.797e-21)
(10.0008 0.00185699 1.57909e-22)
(10.0004 0.00831909 5.6996e-22)
(9.9997 0.0135626 1.33493e-23)
(9.99937 0.0164636 4.46377e-22)
(9.9987 0.0173729 3.18481e-23)
(9.99798 0.0177452 2.29652e-22)
(9.99665 0.0178882 3.63061e-22)
(9.99507 0.0187407 -2.2528e-22)
(9.99389 0.0217578 -1.5688e-22)
(9.9913 0.0256042 9.89879e-23)
(9.98893 0.030626 -4.38033e-22)
(9.98682 0.0364358 1.1696e-22)
(9.98273 0.0373996 1.38647e-22)
(9.98006 0.0417846 1.42098e-22)
(9.97576 0.0421837 0)
(9.97086 0.0454384 -1.55048e-22)
(9.96748 0.0488167 -6.01802e-22)
(9.96033 0.0488054 -2.21996e-22)
(9.9556 0.0550877 2.39666e-22)
(9.94928 0.0614292 -7.98718e-22)
(9.93985 0.0638374 2.62499e-22)
(9.93566 0.0751383 6.97999e-22)
(9.92272 0.0778924 0)
(9.91629 0.0906187 8.20508e-22)
(9.90194 0.092222 0)
(9.89412 0.106216 -5.27594e-22)
(9.87708 0.107763 6.01601e-22)
(9.86453 0.124822 0)
(9.84837 0.130921 -4.50703e-22)
(9.82852 0.138557 5.19209e-22)
(9.81357 0.160068 -1.04845e-21)
(9.78342 0.161125 -1.21706e-21)
(9.76905 0.184386 8.14308e-22)
(9.73472 0.199041 0)
(9.70137 0.207462 -1.94361e-21)
(9.67752 0.250735 0)
(9.61979 0.256213 1.57506e-21)
(9.59348 0.289839 3.48735e-21)
(9.52683 0.323786 2.22127e-21)
(9.47975 0.358492 -1.09879e-21)
(9.40651 0.382974 4.22317e-22)
(9.33009 0.450124 -3.60879e-21)
(9.23728 0.474512 4.23816e-21)
(9.14209 0.572458 0)
(8.99495 0.600312 -1.02912e-20)
(8.87627 0.703741 0)
(8.6629 0.775487 6.05097e-21)
(8.49405 0.887212 -6.85455e-21)
(8.1757 1.02823 9.72963e-21)
(7.91082 1.12695 0)
(10.0011 0.00181024 -3.4671e-22)
(10.0008 0.00792345 -3.76286e-22)
(10.0003 0.0132304 0)
(10.0006 0.0165764 -3.96131e-23)
(10.0002 0.018216 -5.81613e-23)
(10.0002 0.0194258 2.79312e-22)
(9.9997 0.0203498 -2.86492e-22)
(9.99894 0.0217906 8.052e-22)
(9.99845 0.0253721 4.21381e-22)
(9.99697 0.0302078 -6.76569e-22)
(9.99542 0.035352 1.96283e-22)
(9.99481 0.0416334 -2.11262e-22)
(9.99163 0.0439051 2.36751e-22)
(9.99064 0.0486071 -1.00171e-21)
(9.98726 0.0498695 2.80819e-22)
(9.98427 0.0539504 9.22117e-22)
(9.98159 0.0580149 0)
(9.97618 0.0598876 0)
(9.97348 0.0665541 -7.9966e-22)
(9.96763 0.0740524 1.88655e-21)
(9.96313 0.0784981 -1.14326e-21)
(9.9564 0.0876282 1.14145e-21)
(9.94975 0.0985037 -6.84296e-22)
(9.9435 0.106304 6.23437e-22)
(9.93316 0.112379 0)
(9.92673 0.127423 1.41069e-21)
(9.91123 0.132133 -5.9603e-22)
(9.90545 0.149389 -6.43072e-22)
(9.88641 0.155007 6.98332e-22)
(9.87807 0.170698 -8.47644e-22)
(9.85676 0.186453 2.70156e-21)
(9.84182 0.196519 2.26757e-21)
(9.81985 0.222674 2.47105e-21)
(9.79727 0.240621 -2.9863e-21)
(9.77207 0.264997 3.60353e-21)
(9.74097 0.296144 0)
(9.71083 0.318906 0)
(9.66995 0.348761 9.96018e-22)
(9.62974 0.404218 3.62872e-21)
(9.57332 0.422423 -8.37166e-21)
(9.52953 0.495353 7.60421e-21)
(9.43624 0.532736 -2.75794e-21)
(9.38976 0.614331 -7.61552e-22)
(9.26099 0.655416 0)
(9.19184 0.784336 6.36974e-21)
(9.0087 0.834139 0)
(8.91247 0.980535 0)
(8.64672 1.09543 0)
(8.46905 1.28745 1.65912e-20)
(8.12679 1.39563 -2.24085e-20)
(10.0012 0.00147868 9.31919e-24)
(10.001 0.00661641 -6.26888e-22)
(10.0008 0.0115331 6.29461e-22)
(10.0012 0.0150247 -3.72285e-23)
(10.0014 0.0170347 5.19201e-23)
(10.0019 0.0183222 -5.34799e-22)
(10.0019 0.0195568 -6.28799e-23)
(10.0023 0.0214562 -5.66935e-22)
(10.0024 0.0258723 1.45331e-22)
(10.0014 0.0307767 8.33245e-22)
(10.0021 0.0364405 -3.47662e-22)
(10.0011 0.0420279 1.10057e-21)
(9.99998 0.0453894 -7.82095e-22)
(10.0009 0.0499048 -1.71749e-22)
(9.99745 0.0529228 -2.52343e-22)
(9.99787 0.0573547 2.01621e-22)
(9.99507 0.0609723 -3.05633e-22)
(9.99384 0.0641196 3.29569e-22)
(9.99182 0.0691439 1.05539e-22)
(9.98725 0.077051 -8.82898e-22)
(9.98759 0.0852419 -4.90751e-22)
(9.98002 0.0933725 -1.06266e-21)
(9.97923 0.105151 5.5522e-22)
(9.97296 0.112215 -6.89539e-22)
(9.96837 0.122723 0)
(9.96345 0.139373 -1.51105e-22)
(9.95407 0.146498 0)
(9.94987 0.163174 0)
(9.93876 0.171559 1.4895e-22)
(9.93004 0.190171 -1.29495e-21)
(9.91941 0.211948 -3.2589e-21)
(9.90467 0.22337 1.70132e-21)
(9.8922 0.253071 -1.13017e-21)
(9.87488 0.271537 1.21454e-21)
(9.85464 0.303275 -5.13958e-21)
(9.84036 0.334998 3.21682e-21)
(9.80311 0.362589 1.41575e-22)
(9.79599 0.418244 -2.34531e-21)
(9.73691 0.457202 -2.56616e-21)
(9.72156 0.513035 3.36698e-21)
(9.66468 0.573626 -7.05644e-21)
(9.61305 0.656086 2.67574e-21)
(9.55861 0.714534 -3.26585e-21)
(9.47273 0.830915 -1.37141e-20)
(9.39351 0.946559 -1.04688e-21)
(9.28376 1.06108 4.58844e-21)
(9.13278 1.23816 6.70154e-21)
(9.00129 1.43746 0)
(8.75219 1.67127 2.29355e-20)
(8.5102 1.89797 -1.83856e-20)
(10.0011 0.00105137 -5.20237e-22)
(10.0011 0.00491736 1.17975e-21)
(10.001 0.00885928 -5.39904e-23)
(10.0017 0.0119908 3.05198e-22)
(10.0021 0.0140878 0)
(10.0029 0.0154812 -1.03357e-22)
(10.0033 0.0168288 5.391e-22)
(10.0043 0.019296 0)
(10.0041 0.0235 5.03037e-22)
(10.0054 0.0288775 -1.43445e-22)
(10.0052 0.0339833 -1.83466e-24)
(10.0053 0.0385776 -5.47276e-22)
(10.0063 0.0429279 7.79067e-22)
(10.0053 0.0464285 4.25684e-22)
(10.0055 0.049481 -8.26686e-22)
(10.0057 0.0538154 -5.10617e-22)
(10.0034 0.0569169 0)
(10.0047 0.0612684 -2.89393e-22)
(10.001 0.0672036 9.92244e-22)
(10.0013 0.0748561 3.50879e-22)
(9.99857 0.0828691 -7.66053e-22)
(9.99588 0.0921816 8.4606e-22)
(9.99543 0.101047 -4.62122e-22)
(9.98971 0.107599 0)
(9.99071 0.119986 -1.05535e-21)
(9.98282 0.13067 -7.15543e-22)
(9.98369 0.141411 1.30079e-21)
(9.97438 0.149773 7.27998e-22)
(9.97517 0.166295 1.02582e-21)
(9.96231 0.178588 -9.13854e-22)
(9.96369 0.199186 0)
(9.94756 0.211919 1.1688e-21)
(9.94736 0.239182 0)
(9.92938 0.255653 -1.7977e-21)
(9.92314 0.291143 4.30058e-21)
(9.90907 0.316138 -2.01344e-21)
(9.88591 0.345522 0)
(9.8809 0.402165 2.71631e-21)
(9.84422 0.442244 3.58942e-21)
(9.82653 0.483059 2.07749e-21)
(9.79641 0.567216 5.75378e-21)
(9.75203 0.624879 -3.13242e-21)
(9.72002 0.704444 -7.51588e-21)
(9.6498 0.81664 1.05497e-20)
(9.60077 0.924098 0)
(9.50243 1.06134 -6.2071e-21)
(9.41848 1.23544 1.81621e-20)
(9.26314 1.43818 -1.82467e-20)
(9.14161 1.68471 -8.45325e-21)
(8.92733 2.03321 -2.39485e-20)
(10.0006 0.000591363 5.17406e-22)
(10.001 0.00310357 -5.62584e-22)
(10.0011 0.0060963 -5.75768e-22)
(10.0022 0.00879961 -1.32815e-21)
(10.0028 0.0109424 8.72109e-23)
(10.0039 0.0125358 5.38767e-22)
(10.0047 0.013984 -3.23657e-22)
(10.0059 0.016597 -1.10442e-22)
(10.0068 0.0204607 -3.80463e-22)
(10.0087 0.0255477 0)
(10.0096 0.0305691 -5.34568e-22)
(10.011 0.0346456 0)
(10.0126 0.0392751 -6.24129e-22)
(10.0127 0.0428126 0)
(10.0143 0.0460582 4.3049e-22)
(10.0152 0.0498653 4.17508e-22)
(10.0151 0.0541072 -8.64536e-22)
(10.0164 0.057525 4.99236e-22)
(10.0172 0.064381 -1.08308e-21)
(10.0161 0.0725567 1.18304e-21)
(10.0184 0.0788341 -6.42083e-22)
(10.0174 0.0903613 -6.61017e-22)
(10.0167 0.0981847 3.92551e-22)
(10.0183 0.107055 -4.23959e-22)
(10.014 0.119536 5.62516e-22)
(10.0149 0.130726 5.14638e-22)
(10.0148 0.142388 -2.89871e-21)
(10.007 0.153555 -8.52149e-23)
(10.0123 0.169107 -1.26191e-21)
(10.0015 0.183704 -1.29956e-21)
(10.0066 0.20319 1.64135e-21)
(9.99495 0.219611 -1.14238e-21)
(9.99962 0.244907 9.60448e-22)
(9.98716 0.265121 0)
(9.98757 0.301267 1.206e-21)
(9.98129 0.328077 5.01124e-21)
(9.96966 0.364061 -1.83003e-21)
(9.97078 0.421428 1.37297e-21)
(9.94814 0.462603 -6.06013e-21)
(9.94609 0.520358 5.04889e-22)
(9.92197 0.598292 -4.00863e-21)
(9.90766 0.67758 4.04924e-22)
(9.87882 0.758694 5.06188e-21)
(9.85274 0.89707 3.17385e-21)
(9.81921 1.01526 -3.5073e-21)
(9.74277 1.19301 5.88351e-21)
(9.71054 1.39484 -1.73563e-20)
(9.58503 1.64762 1.82202e-21)
(9.4658 1.94145 5.95136e-21)
(9.34265 2.32274 0)
(10.0001 0.000157955 0)
(10.0004 0.00114766 5.13529e-22)
(10.0006 0.0027686 -3.48606e-23)
(10.0015 0.00413106 1.24665e-21)
(10.0023 0.00540641 0)
(10.0032 0.00690164 -6.34098e-22)
(10.0043 0.00803511 6.40238e-22)
(10.0048 0.00976931 0)
(10.0054 0.0121439 0)
(10.0071 0.0161087 -9.14612e-22)
(10.0083 0.021299 5.29486e-22)
(10.0094 0.0251068 0)
(10.0124 0.028928 6.17669e-22)
(10.0127 0.0319877 0)
(10.0153 0.0344881 0)
(10.0163 0.0373781 1.08685e-21)
(10.0184 0.04134 4.88565e-23)
(10.0187 0.0441592 4.35349e-22)
(10.02 0.0486805 0)
(10.0214 0.0554577 0)
(10.0207 0.0605365 -1.62357e-21)
(10.0249 0.0688509 1.2533e-21)
(10.0236 0.0768541 6.5927e-22)
(10.0261 0.0833832 -3.90261e-23)
(10.0284 0.0945597 0)
(10.026 0.103217 0)
(10.0333 0.112543 1.67553e-22)
(10.027 0.123072 0)
(10.0343 0.134489 1.23527e-21)
(10.0272 0.147041 2.45153e-21)
(10.0349 0.162548 -7.57018e-22)
(10.0275 0.175529 -1.28111e-21)
(10.0345 0.196588 -1.36491e-22)
(10.028 0.211567 -1.74591e-21)
(10.031 0.242725 -1.03337e-21)
(10.0283 0.264497 -1.33485e-21)
(10.0193 0.298601 9.65259e-22)
(10.0373 0.343563 -1.70443e-21)
(10.0134 0.380875 8.28752e-22)
(10.0355 0.429376 -3.93784e-21)
(10.0011 0.500455 1.86038e-21)
(10.0233 0.570711 1.52958e-21)
(9.98822 0.647205 -1.81647e-21)
(9.99685 0.770033 0)
(9.99251 0.876901 -1.67543e-21)
(9.98466 1.05497 1.03874e-21)
(9.96094 1.21626 4.46245e-21)
(9.95278 1.52426 4.55751e-21)
(9.86071 1.81594 0)
(9.79399 2.35884 1.2561e-21)
(10.0933 0.0017435 1.05208e-22)
(10.0927 -0.00230372 9.67133e-23)
(10.0938 -0.00258035 7.95792e-24)
(10.0925 -0.00445418 -3.66584e-23)
(10.0918 -0.00557663 -1.51076e-22)
(10.0916 -0.00623179 1.4774e-22)
(10.0914 -0.00812976 2.09921e-22)
(10.0924 -0.00816732 -4.4889e-22)
(10.0922 -0.00992318 2.68935e-22)
(10.0923 -0.0105798 -2.68784e-22)
(10.0933 -0.0116081 0)
(10.0937 -0.011641 -9.23594e-23)
(10.0944 -0.0127061 -1.08463e-22)
(10.0949 -0.0128019 -2.31159e-22)
(10.0968 -0.0125785 -1.30706e-22)
(10.096 -0.0124732 4.2222e-22)
(10.0964 -0.0126774 0)
(10.0974 -0.0108647 1.82672e-22)
(10.0982 -0.00956184 -4.00462e-22)
(10.0971 -0.0080249 2.19495e-22)
(10.0987 -0.00527477 -7.63286e-22)
(10.0984 -0.00233474 5.27467e-22)
(10.0996 0.00164461 2.80354e-22)
(10.1002 0.00653435 3.89902e-22)
(10.1029 0.0115325 -2.23484e-22)
(10.1045 0.017283 2.02654e-22)
(10.1088 0.0231202 -4.88951e-22)
(10.1084 0.0293693 -2.48699e-22)
(10.1083 0.0344865 2.6912e-22)
(10.105 0.0450497 -2.83022e-23)
(10.1094 0.0592564 2.95517e-22)
(10.1081 0.0812683 -1.01333e-21)
(10.1161 0.109832 2.70636e-22)
(10.1219 0.14578 1.28284e-22)
(10.1429 0.184212 -5.34869e-22)
(10.1648 0.234788 2.11015e-23)
(10.1956 0.278218 1.11534e-22)
(10.256 0.323432 0)
(10.3173 0.375655 2.94339e-22)
(10.4091 0.418309 1.06832e-21)
(10.4971 0.434565 -1.1687e-21)
(10.5801 0.442245 -2.44888e-22)
(10.697 0.434349 -6.12014e-22)
(10.7932 0.361341 3.10042e-21)
(10.8563 0.33549 2.4274e-21)
(10.8448 0.256917 0)
(10.7767 0.253714 2.06869e-21)
(10.6596 0.323826 -3.23178e-21)
(10.5418 0.633317 -9.00097e-21)
(10.4721 1.01388 2.22049e-20)
(10.0927 -0.000607374 -2.33864e-22)
(10.0872 -0.0021982 8.59892e-24)
(10.088 -0.00364557 -1.87653e-23)
(10.0887 -0.00470294 -1.43178e-23)
(10.0895 -0.00565901 1.48986e-22)
(10.0896 -0.00615539 -1.6859e-22)
(10.0903 -0.00726951 0)
(10.0915 -0.00725151 2.74686e-22)
(10.0899 -0.00882759 -2.69745e-22)
(10.0913 -0.00864096 1.34188e-24)
(10.0928 -0.00916369 -8.79762e-23)
(10.0931 -0.00904719 4.79963e-23)
(10.0938 -0.00966056 1.55236e-22)
(10.0954 -0.00863566 2.31924e-22)
(10.097 -0.00872725 -1.92633e-22)
(10.0965 -0.00813264 2.80196e-22)
(10.0984 -0.00623038 -7.99933e-23)
(10.1008 -0.00394204 1.73631e-22)
(10.1019 -0.00263159 -9.42557e-23)
(10.103 0.000608643 0)
(10.1065 0.0041144 1.12592e-22)
(10.1081 0.00784985 -4.48281e-23)
(10.1124 0.0130691 -4.15261e-22)
(10.1148 0.0180613 7.54986e-23)
(10.1198 0.0242355 -3.35278e-22)
(10.1223 0.0310376 -2.36023e-22)
(10.1271 0.038371 2.26259e-22)
(10.1285 0.0470667 -2.49045e-22)
(10.1316 0.0581332 7.43379e-23)
(10.1338 0.0753173 4.21615e-22)
(10.1394 0.0975737 -8.68158e-23)
(10.1481 0.125418 9.42156e-23)
(10.1645 0.159462 0)
(10.1743 0.195934 0)
(10.2115 0.233043 5.3446e-23)
(10.2575 0.274549 0)
(10.3026 0.306168 0)
(10.3687 0.336924 9.61873e-22)
(10.4412 0.362108 -1.05138e-21)
(10.5235 0.371252 0)
(10.6105 0.362422 -1.44902e-21)
(10.6759 0.350179 1.18576e-21)
(10.7582 0.321407 -4.0154e-21)
(10.8122 0.283602 1.30737e-21)
(10.8395 0.273623 5.55833e-21)
(10.8314 0.258909 8.2278e-22)
(10.8108 0.334455 -5.57911e-21)
(10.7638 0.42435 1.07736e-20)
(10.7753 0.706929 9.51918e-21)
(10.8805 0.942447 -2.76155e-20)
(10.0882 -0.000687698 2.81403e-22)
(10.0846 -0.0017412 1.62139e-22)
(10.0856 -0.00264702 5.34678e-24)
(10.0869 -0.00284441 1.80651e-22)
(10.087 -0.00474508 0)
(10.0871 -0.0046101 0)
(10.0874 -0.0065729 0)
(10.0872 -0.00676118 0)
(10.0879 -0.00870826 3.88808e-23)
(10.0905 -0.00797948 -4.17936e-23)
(10.0917 -0.00880957 0)
(10.0922 -0.00880358 0)
(10.094 -0.00880006 -5.46816e-23)
(10.0959 -0.00781823 5.88415e-23)
(10.0977 -0.00803617 2.59445e-22)
(10.0994 -0.00693741 -2.13833e-22)
(10.1036 -0.00504023 -4.38455e-25)
(10.1054 -0.00381535 -7.95492e-23)
(10.1074 -0.00269085 0)
(10.1109 0.000262988 -8.70823e-23)
(10.1151 0.00291777 1.84217e-22)
(10.118 0.00606258 -2.23459e-22)
(10.1241 0.0100078 -9.95817e-23)
(10.127 0.0142223 1.46641e-22)
(10.1343 0.0192308 9.73833e-23)
(10.1387 0.025156 2.09292e-22)
(10.1461 0.0322566 -1.49519e-22)
(10.1506 0.041161 1.03971e-22)
(10.1613 0.0523705 8.56506e-23)
(10.1739 0.0697349 1.0763e-22)
(10.1914 0.08639 -1.84234e-22)
(10.2106 0.108065 2.08722e-22)
(10.2442 0.126106 1.06942e-22)
(10.2647 0.147139 2.35839e-22)
(10.2999 0.16457 -1.53708e-21)
(10.3394 0.179898 -2.1308e-22)
(10.3732 0.191309 1.74686e-21)
(10.4244 0.208282 -1.62047e-21)
(10.4778 0.215542 -1.48757e-21)
(10.5262 0.229729 -3.86352e-22)
(10.5874 0.224468 -6.89615e-22)
(10.6425 0.233161 0)
(10.7085 0.236361 2.57636e-21)
(10.7729 0.232819 -3.40324e-21)
(10.837 0.256142 -4.47772e-21)
(10.8788 0.253356 0)
(10.933 0.356571 5.31836e-21)
(10.9739 0.400827 -2.35403e-20)
(11.0203 0.664553 1.10299e-20)
(11.171 0.832561 -1.00366e-21)
(10.0839 -0.00162697 -1.51096e-22)
(10.0834 -0.00155186 -2.71287e-22)
(10.083 -0.00286442 -6.22789e-24)
(10.0843 -0.00274679 -2.50296e-25)
(10.0835 -0.0053153 2.90449e-23)
(10.0849 -0.00509918 1.15656e-22)
(10.0851 -0.00724511 0)
(10.0855 -0.00732721 0)
(10.0877 -0.00852181 0)
(10.0903 -0.0077831 -1.75381e-22)
(10.0914 -0.0089607 0)
(10.0923 -0.00882645 -4.94138e-23)
(10.0963 -0.00882003 -5.36395e-23)
(10.0978 -0.00839143 0)
(10.1002 -0.00807083 1.14365e-22)
(10.1047 -0.00664271 0)
(10.1084 -0.00540208 5.65606e-23)
(10.1093 -0.00418865 1.3331e-22)
(10.1142 -0.0026358 -1.35008e-22)
(10.1203 0.000686212 1.83175e-22)
(10.1242 0.00288005 6.0907e-23)
(10.1296 0.00652946 -1.03865e-23)
(10.1368 0.0104894 -4.59709e-23)
(10.1417 0.0149445 -5.04035e-23)
(10.151 0.0203072 0)
(10.1578 0.0268893 -4.4469e-23)
(10.1686 0.0347954 -4.48272e-23)
(10.1776 0.0442725 4.85777e-23)
(10.1962 0.0555716 -1.92321e-22)
(10.2146 0.0682848 -3.88856e-22)
(10.232 0.0790877 1.8713e-22)
(10.2498 0.0929392 -4.77425e-22)
(10.2765 0.102156 1.92779e-22)
(10.2983 0.112675 -2.54316e-22)
(10.3328 0.127738 8.42078e-22)
(10.3757 0.142049 -8.18204e-22)
(10.4188 0.154761 0)
(10.4748 0.172148 0)
(10.5409 0.170066 1.31462e-21)
(10.5916 0.179938 1.72313e-21)
(10.6639 0.163841 2.24513e-21)
(10.7326 0.167076 0)
(10.7946 0.155653 0)
(10.8558 0.151228 3.18458e-21)
(10.9158 0.181594 -8.26821e-21)
(10.9766 0.158601 1.46971e-20)
(11.0495 0.275203 -2.75464e-22)
(11.153 0.287411 0)
(11.2578 0.541745 1.41193e-20)
(11.4343 0.604176 -3.22058e-20)
(10.0793 -0.000617151 0)
(10.0821 -0.00184164 9.56951e-23)
(10.0813 -0.00278537 1.15075e-22)
(10.0803 -0.00362927 0)
(10.0801 -0.00605658 -1.59087e-23)
(10.0817 -0.00584973 -1.14802e-22)
(10.0823 -0.0083174 7.66519e-23)
(10.084 -0.00816812 1.01092e-22)
(10.0878 -0.00930042 -2.10421e-23)