/*--------------------------------*- C++ -*----------------------------------*\
| =========                 |                                                 |
| \\      /  F ield         | OpenFOAM: The Open Source CFD Toolbox           |
|  \\    /   O peration     | Version:  2.3.1                                 |
|   \\  /    A nd           | Web:      www.OpenFOAM.org                      |
|    \\/     M anipulation  |                                                 |
\*---------------------------------------------------------------------------*/
FoamFile
{
    version     2.0;
    format      ascii;
    class       volVectorField;
    location    "47";
    object      ddt0(U);
}
// * * * * * * * * * * * * * * * * * * * * * * * * * * * * * * * * * * * * * //

dimensions      [0 1 -2 0 0 0 0];

internalField   nonuniform List<vector> 
4825
(
(-0.00202123 0.00108559 8.00827e-19)
(-0.00168794 0.0067081 5.38055e-20)
(-0.00606979 0.0213413 8.70994e-19)
(-0.0121824 0.0232946 0)
(-0.0149707 0.0132335 0)
(-0.0200168 0.00527852 0)
(-0.0190181 -0.00316519 0)
(-0.021652 -0.0111456 6.33505e-19)
(-0.0199591 -0.00745985 -5.35174e-19)
(-0.015458 -0.0121695 3.87936e-19)
(-0.0139484 -0.0139636 1.00797e-18)
(-0.0114632 0.0298419 6.18134e-19)
(-0.0327817 0.0704824 -6.66787e-19)
(-0.0332293 0.0664893 0)
(-0.0448599 0.0502094 0)
(-0.0655882 0.0462814 0)
(-0.0546442 0.0222115 -1.56108e-18)
(-0.0905127 -0.00618843 1.03481e-18)
(-0.0745287 0.0048127 -3.56086e-19)
(-0.0997573 -0.0170355 1.16979e-18)
(-0.101216 -0.0347067 0)
(-0.105346 -0.0322818 4.68911e-19)
(-0.129704 -0.0340214 9.7621e-19)
(-0.093867 -0.0371101 -1.58871e-18)
(-0.174904 -0.00126312 -5.4722e-19)
(-0.111951 -0.0017587 -5.79243e-19)
(-0.181298 0.00551103 1.31234e-18)
(-0.179366 0.053265 1.46879e-18)
(-0.235042 0.0732074 0)
(-0.197579 0.0805727 8.81079e-19)
(-0.303484 0.0508056 -1.91876e-18)
(-0.344897 0.0753399 2.10436e-18)
(-0.308921 0.105047 -2.32306e-18)
(-0.386193 0.0783013 1.47161e-20)
(-0.436861 0.122579 2.27392e-21)
(-0.56599 0.150068 -3.18184e-18)
(-0.563398 -0.0720303 1.71887e-18)
(-0.588889 -0.0039734 1.90517e-18)
(-0.733121 0.241358 0)
(-0.751209 -0.0152917 0)
(-0.783871 0.166261 1.40663e-18)
(-0.789869 0.06305 -1.61636e-18)
(-1.15922 0.328799 1.76791e-18)
(-1.18128 0.317931 6.20478e-18)
(-1.57748 0.326087 -2.33466e-18)
(-1.70948 0.353346 2.86162e-18)
(-2.60965 0.646776 -3.09912e-18)
(-2.46078 1.26448 3.84326e-18)
(-2.71001 -0.291068 0)
(-3.21949 2.48132 5.5654e-18)
(-0.00538539 0.00364084 -8.05107e-19)
(-0.00297165 0.019194 -8.44016e-19)
(-0.00673529 0.0392167 -8.93064e-19)
(-0.0131937 0.0321727 -6.03126e-20)
(-0.0154953 0.0207441 6.47457e-20)
(-0.0167845 0.00816081 -5.39883e-19)
(-0.0177179 -0.00382441 -5.75753e-19)
(-0.0186831 -0.0123345 -4.82498e-19)
(-0.0185216 -0.0168383 -1.6795e-19)
(-0.0203227 -0.0126438 -1.79435e-19)
(-0.0255637 0.0100669 1.92995e-19)
(-0.0311602 0.0459601 -3.64882e-20)
(-0.0433733 0.07565 9.05033e-19)
(-0.0401519 0.055804 -2.37458e-19)
(-0.0498304 0.0440915 5.11165e-19)
(-0.0479574 0.0511449 -5.50168e-19)
(-0.0499732 0.013837 2.96489e-19)
(-0.0634444 0.0132046 9.74134e-19)
(-0.0459898 0.00237739 8.54418e-22)
(-0.0760102 -0.00184869 1.17376e-21)
(-0.0668662 -0.0129985 -8.09232e-19)
(-0.0816291 -0.0149639 4.37228e-19)
(-0.0923783 -0.0234071 4.7808e-19)
(-0.0984728 -0.011946 -5.17632e-19)
(-0.124773 0.0187863 5.80511e-19)
(-0.0986771 0.0243973 2.46603e-18)
(-0.197215 0.0937574 -2.66837e-18)
(-0.131747 0.0754944 -7.29079e-19)
(-0.171782 0.0779565 1.26785e-20)
(-0.204108 0.12401 0)
(-0.193022 0.17116 0)
(-0.237875 0.0619377 0)
(-0.242512 0.0611054 -3.33696e-20)
(-0.302178 0.116269 2.59165e-18)
(-0.275484 0.0829387 0)
(-0.380493 0.201806 7.73896e-19)
(-0.332486 -0.00211329 8.87892e-19)
(-0.526472 0.0677522 -9.77523e-19)
(-0.515957 0.172189 0)
(-0.543464 0.0930331 0)
(-0.842858 0.262209 1.43266e-18)
(-0.744609 0.139074 -4.71781e-18)
(-0.921676 0.297475 1.76945e-18)
(-1.1653 0.480797 2.03192e-18)
(-1.06969 0.334687 -2.33131e-18)
(-1.77656 0.911941 1.35526e-18)
(-1.06352 0.436977 -1.50526e-18)
(-2.25767 1.68634 1.98515e-18)
(-1.50596 1.33453 -2.00171e-18)
(-3.35603 1.2419 -5.39794e-18)
(-0.00774927 0.00629118 0)
(-0.00346615 0.0344992 8.17254e-19)
(-0.00590831 0.0569273 4.96462e-19)
(-0.0163313 0.0488671 -5.17147e-19)
(-0.0191227 0.0290108 5.50635e-19)
(-0.0207276 0.0112803 1.06284e-18)
(-0.0213855 -0.000190777 2.56119e-20)
(-0.0246113 -0.00840446 -5.92261e-19)
(-0.0245409 -0.0111069 -1.61979e-19)
(-0.0259254 -0.00462025 1.74466e-19)
(-0.0325737 0.0160527 0)
(-0.0282657 0.0560221 -1.197e-18)
(-0.0363254 0.100087 -6.25997e-19)
(-0.0493306 0.0776042 -2.17587e-19)
(-0.0479382 0.0605375 0)
(-0.0707181 0.0612322 -7.83777e-19)
(-0.0545506 0.0247175 -3.19689e-23)
(-0.0773186 0.0129945 -4.44273e-22)
(-0.0808654 0.0100204 3.34066e-19)
(-0.080148 0.011432 0)
(-0.0894587 -7.93747e-05 -3.90926e-19)
(-0.097832 0.00444372 4.22375e-19)
(-0.116632 -0.00546094 0)
(-0.103357 0.0156874 5.00574e-19)
(-0.155156 0.0415877 -1.46749e-20)
(-0.120933 0.0593369 0)
(-0.200168 0.157481 3.61985e-20)
(-0.151026 0.0658119 0)
(-0.228517 0.0870548 7.94127e-19)
(-0.229056 0.199793 -8.57073e-19)
(-0.246785 0.209654 2.78121e-18)
(-0.348383 0.142061 -2.06637e-18)
(-0.290219 0.0877315 -3.31835e-20)
(-0.43436 0.272118 0)
(-0.372091 0.0601516 -6.79723e-19)
(-0.573466 0.333749 -7.976e-19)
(-0.403295 0.153568 0)
(-0.689019 0.234542 9.40348e-19)
(-0.678133 0.255508 4.52292e-20)
(-0.693369 0.283609 -3.68034e-18)
(-0.953637 0.499477 2.8075e-18)
(-0.960929 0.332264 5.00984e-20)
(-1.09019 0.37555 0)
(-1.49273 0.976022 -2.12526e-18)
(-1.01689 0.474951 -2.45462e-18)
(-2.08078 1.10153 -7.05381e-20)
(-1.25872 1.58831 3.29436e-18)
(-2.78169 0.980649 -1.84242e-18)
(-1.33343 2.41233 4.65809e-18)
(-2.93791 1.84808 2.52449e-19)
(-0.00899625 0.00889749 0)
(-0.00457957 0.0502457 -2.47298e-20)
(-0.00552886 0.0845148 5.60324e-20)
(-0.0185738 0.0674878 8.33238e-19)
(-0.020974 0.0415517 2.80232e-20)
(-0.0225081 0.0172233 2.99201e-20)
(-0.0250338 0.00190973 4.22172e-19)
(-0.0265784 -0.00277439 7.41106e-19)
(-0.0282074 -0.00530665 -2.32157e-19)
(-0.0299279 -0.000589476 1.66055e-19)
(-0.0346878 0.0110953 0)
(-0.0336778 0.0505886 7.49136e-19)
(-0.0413594 0.126837 4.16882e-19)
(-0.0490471 0.107844 8.74485e-19)
(-0.0568937 0.0809831 -4.54684e-19)
(-0.0616814 0.0864175 1.01162e-18)
(-0.0638789 0.0579184 5.26635e-19)
(-0.0813506 0.0397177 -2.839e-19)
(-0.0756418 0.0356056 3.16e-19)
(-0.084908 0.0296202 -3.40927e-19)
(-0.0961754 0.0257788 0)
(-0.0962607 0.0414857 4.02848e-19)
(-0.128247 0.0369758 -8.52384e-19)
(-0.113482 0.0320235 -2.09731e-20)
(-0.169568 0.0742356 -1.83515e-20)
(-0.135816 0.0571547 5.42148e-19)
(-0.209947 0.178084 6.36356e-19)
(-0.207616 0.122485 3.34656e-20)
(-0.174533 0.167142 -3.6612e-19)
(-0.305003 0.200406 -4.06068e-19)
(-0.204539 0.254012 -4.73613e-19)
(-0.349868 0.352989 -1.66188e-20)
(-0.265127 0.103094 0)
(-0.416728 0.405164 -3.03124e-20)
(-0.293166 0.246912 1.36452e-18)
(-0.570945 0.247416 0)
(-0.345971 0.420583 0)
(-0.589788 0.468408 -1.88519e-18)
(-0.67364 0.248665 3.75274e-18)
(-0.506369 0.433076 -5.34825e-19)
(-0.890939 0.752887 6.45259e-19)
(-0.611888 0.558879 -8.33621e-19)
(-0.925915 0.733348 2.59147e-18)
(-1.42127 0.872181 -1.0409e-18)
(-0.394254 1.20944 -1.16871e-18)
(-1.95741 0.882765 1.47301e-18)
(-1.28848 1.73957 0)
(-0.601737 1.25963 -1.77536e-18)
(-2.5029 2.44951 2.17295e-18)
(-1.43165 3.50553 0)
(-0.00931468 0.0124368 -1.04332e-20)
(-0.00522965 0.06597 1.14452e-20)
(-0.00448751 0.114426 4.00327e-19)
(-0.0178898 0.0870629 -4.30938e-19)
(-0.0197483 0.0557442 -5.15489e-19)
(-0.0211828 0.0283185 -4.9141e-19)
(-0.024218 0.0102096 3.58899e-22)
(-0.0265458 0.00411126 6.75945e-20)
(-0.0283718 0.00311976 7.18173e-20)
(-0.0286954 0.0119263 -7.72415e-20)
(-0.0316745 0.0298543 2.30237e-19)
(-0.0424609 0.0671759 -1.89893e-19)
(-0.0366811 0.134489 -9.46701e-20)
(-0.0471925 0.128458 -5.28213e-19)
(-0.0516004 0.110367 3.59581e-19)
(-0.0593105 0.0975818 -7.17177e-19)
(-0.0662961 0.0867951 -5.30697e-19)
(-0.065222 0.0577036 1.48591e-19)
(-0.081906 0.0778383 2.8165e-19)
(-0.0804073 0.020027 4.64399e-19)
(-0.0803186 0.0283687 1.73666e-19)
(-0.107769 0.119806 -1.87695e-19)
(-0.0948542 0.0681395 6.19719e-19)
(-0.111151 0.0890118 -6.7072e-19)
(-0.151043 0.108357 -2.31207e-19)
(-0.105338 0.17389 -5.51725e-19)
(-0.208519 0.27398 0)
(-0.134909 0.147492 3.56915e-19)
(-0.188668 0.220275 3.36983e-19)
(-0.284722 0.402211 3.71501e-19)
(-0.174672 0.19696 0)
(-0.329734 0.401588 -1.38328e-18)
(-0.216402 0.263695 9.91809e-19)
(-0.356934 0.331969 -1.18425e-18)
(-0.381567 0.46244 1.31071e-18)
(-0.344111 0.353441 -1.05549e-18)
(-0.432811 0.564698 3.73984e-19)
(-0.474249 0.553946 0)
(-0.534363 0.418762 -2.25039e-20)
(-0.493362 0.694488 -5.11342e-19)
(-0.69996 0.777841 5.86608e-19)
(-0.526495 0.744717 -7.27312e-19)
(-0.949843 1.43665 -5.96314e-20)
(-0.773401 0.488887 -4.53731e-20)
(-0.674841 1.51913 2.27716e-18)
(-1.45357 1.79905 7.18276e-19)
(-0.723932 0.801076 2.20786e-18)
(-1.33617 2.85667 -2.53981e-18)
(-1.82166 1.50982 9.54832e-19)
(-0.420554 3.90276 1.29371e-18)
(-0.00834653 0.0158596 0)
(-0.00631972 0.080405 0)
(-0.00323917 0.141314 1.55004e-19)
(-0.0144266 0.104293 0)
(-0.0159 0.0683236 0)
(-0.0168985 0.0394308 0)
(-0.0230978 0.0183791 0)
(-0.0217322 0.00692458 -3.0132e-20)
(-0.0216447 0.0079962 2.1506e-19)
(-0.0230327 0.0271566 -1.96357e-19)
(-0.0252651 0.0502199 -1.03332e-19)
(-0.038499 0.0812294 -7.9521e-20)
(-0.0305684 0.137127 -1.57826e-19)
(-0.0360122 0.155054 1.70238e-19)
(-0.0388997 0.140812 3.08457e-19)
(-0.0451232 0.124023 2.17846e-19)
(-0.0501168 0.109166 0)
(-0.0508096 0.0752491 -1.24017e-19)
(-0.0662268 0.10356 -2.50626e-20)
(-0.0563234 0.0728274 -1.71428e-19)
(-0.0722251 0.0578857 0)
(-0.101935 0.137153 -1.58192e-19)
(-0.0597127 0.0868112 -1.28495e-20)
(-0.0956093 0.131622 2.12736e-19)
(-0.127099 0.163827 1.34973e-20)
(-0.105384 0.184183 2.40276e-19)
(-0.124119 0.259623 -3.80245e-19)
(-0.132991 0.229095 2.9974e-19)
(-0.139411 0.279068 -3.30348e-19)
(-0.185464 0.482982 -3.26267e-20)
(-0.126989 0.288685 -1.82914e-19)
(-0.221904 0.365601 4.40526e-19)
(-0.243646 0.483516 -5.03431e-19)
(-0.153059 0.488165 0)
(-0.372535 0.626817 0)
(-0.188763 0.173074 3.39156e-19)
(-0.323854 0.97847 -5.74229e-19)
(-0.393671 0.701047 5.90367e-19)
(-0.297581 0.340367 2.46388e-19)
(-0.47883 1.30847 -5.09435e-19)
(-0.375391 0.533278 2.68136e-19)
(-0.776909 0.859534 -6.96401e-19)
(-0.282498 1.2361 1.10544e-18)
(-0.660552 1.40788 -1.76964e-18)
(-0.482188 1.3481 -4.9319e-19)
(-0.976121 1.93929 -6.35369e-19)
(-0.559164 1.78565 -2.59829e-20)
(-0.896656 1.88727 1.24817e-18)
(-1.01448 2.56767 -9.6283e-19)
(-0.984696 1.75035 -5.75795e-19)
(-0.00563704 0.0258183 1.90927e-21)
(-0.00625431 0.082742 -2.03823e-21)
(-2.86057e-05 0.160967 -1.55102e-19)
(-0.00676733 0.117047 4.38771e-20)
(-0.00821141 0.0799284 -1.03209e-20)
(-0.00904443 0.052492 0)
(-0.0170718 0.0294886 1.18233e-20)
(-0.0110956 0.00182564 -1.27122e-20)
(-0.0106514 0.00798982 -1.19226e-19)
(-0.0116088 0.0392825 1.57275e-19)
(-0.0125215 0.068495 -1.65858e-19)
(-0.0230212 0.0999044 -3.39207e-20)
(-0.0165017 0.140555 1.22139e-19)
(-0.0241366 0.156872 -1.30993e-19)
(-0.0186194 0.162113 4.21611e-20)
(-0.0243796 0.146641 -1.90427e-19)
(-0.0266712 0.122534 4.92807e-20)
(-0.0314634 0.111093 -4.82071e-20)
(-0.0407508 0.0973663 -1.82754e-19)
(-0.0336836 0.0973806 -1.0126e-20)
(-0.0421759 0.103383 1.89376e-22)
(-0.0374525 0.118313 8.54185e-20)
(-0.0564581 0.136821 -1.7194e-19)
(-0.0347046 0.16833 2.74729e-19)
(-0.0461588 0.205969 -1.44725e-19)
(-0.0613309 0.249023 -1.25638e-21)
(-0.0991209 0.266474 1.21518e-19)
(-0.0646784 0.290146 -3.07727e-22)
(-0.049737 0.346884 -9.00552e-22)
(-0.0998345 0.401823 6.29801e-20)
(-0.124915 0.412683 1.03598e-21)
(-0.100345 0.44906 9.24567e-20)
(-0.14389 0.493874 -2.01601e-19)
(-0.14919 0.509931 1.15663e-19)
(-0.0737501 0.686189 -3.11876e-19)
(-0.172279 0.385668 7.40051e-20)
(-0.260947 0.767757 -9.76577e-20)
(-0.0295568 0.979314 -8.82769e-21)
(-0.257573 0.270939 2.18525e-19)
(-0.377767 1.14886 -2.00246e-19)
(-0.174174 1.21118 -4.75284e-19)
(-0.108045 0.945652 2.22893e-19)
(-0.396163 1.02425 -3.68176e-19)
(-0.442447 1.33986 7.43529e-19)
(-0.139293 1.77366 -2.27405e-19)
(-0.274163 1.65224 -3.69561e-19)
(-0.299029 2.43033 -3.09752e-19)
(-0.350681 1.01182 6.42863e-19)
(-0.932547 4.93538 -3.82903e-19)
(0.673144 1.96929 -2.90707e-20)
(-0.00110454 0.0376434 0)
(-0.00444075 0.0806596 0)
(0.0029845 0.158484 0)
(0.00215397 0.12294 -6.01392e-20)
(0.00223466 0.0887312 0)
(-0.000133636 0.0595601 0)
(-0.00373122 0.03099 0)
(0.00265494 -0.00390977 0)
(0.00237021 0.00977908 0)
(0.000930983 0.042892 0)
(0.0014245 0.0670805 5.03093e-20)
(-0.00186209 0.119484 0)
(-0.000216984 0.14485 0)
(0.000191673 0.162224 0)
(0.000347272 0.164155 0)
(0.00266839 0.148778 0)
(0.00111019 0.146383 0)
(0.00175069 0.11623 8.62898e-20)
(0.000140152 0.102347 0)
(-0.00123319 0.0835954 0)
(0.00211706 0.113682 0)
(-0.0014367 0.150996 0)
(-0.00130464 0.0955491 0)
(0.0119835 0.0995731 0)
(-0.00554034 0.304835 -7.8229e-20)
(-0.00799288 0.39502 0)
(0.037095 0.122533 0)
(-0.0209815 0.195162 0)
(-0.00300262 0.564748 0)
(0.00848787 0.403092 0)
(-0.0125334 0.374522 0)
(0.0141885 0.702852 0)
(-0.0653048 0.328843 0)
(0.0752562 0.409163 0)
(-0.0542803 0.947211 1.09427e-19)
(0.0852109 0.25088 1.21355e-19)
(-0.124677 0.742813 -1.43121e-19)
(0.124914 1.16049 0)
(0.0173627 0.583572 0)
(-0.175585 1.20188 0)
(0.174059 0.562154 0)
(-0.00378766 1.27093 1.28289e-19)
(-0.166211 1.88605 0)
(0.151113 0.0510002 -1.74266e-19)
(-0.171706 2.29982 0)
(-0.243339 2.17225 2.17935e-19)
(0.563992 1.16118 0)
(-0.521487 4.07126 0)
(-0.23855 -0.228782 0)
(0.911676 4.34666 0)
(0.00353808 0.0430575 -1.04845e-21)
(-0.0017776 0.0752923 1.09477e-21)
(0.00493605 0.140814 -6.20146e-20)
(0.00980801 0.118392 2.04167e-20)
(0.0124424 0.0893152 5.81659e-21)
(0.00753592 0.0634424 0)
(0.0102729 0.0228456 -6.78915e-21)
(0.0157737 -0.0123437 7.20011e-21)
(0.0139711 0.00978599 -5.33749e-20)
(0.0167716 0.0402689 5.77402e-20)
(0.0156596 0.077754 -1.03095e-19)
(0.0168531 0.104856 2.01123e-20)
(0.0126275 0.131188 9.51711e-20)
(0.0264197 0.154922 -1.02978e-19)
(0.023298 0.154508 -2.55576e-20)
(0.0314077 0.142129 3.63094e-20)
(0.029387 0.127382 -5.99631e-20)
(0.0331017 0.114951 -5.07431e-21)
(0.0378798 0.102723 -9.61743e-20)
(0.0318399 0.101999 -1.05458e-19)
(0.0432666 0.0993918 -4.22642e-22)
(0.0416039 0.11328 1.2546e-19)
(0.0622783 0.130034 -8.70567e-20)
(0.0432762 0.163781 3.96635e-20)
(0.0486781 0.209551 1.57973e-19)
(0.0521314 0.246112 7.02244e-22)
(0.109305 0.260373 6.55901e-20)
(0.0656942 0.32026 2.06999e-21)
(0.0335187 0.384004 4.95698e-24)
(0.11071 0.355315 -1.72365e-19)
(0.130543 0.417667 -5.38848e-20)
(0.104309 0.467924 -6.88038e-20)
(0.168449 0.448257 1.45137e-19)
(0.110825 0.568607 -7.90881e-20)
(0.123721 0.496931 1.26213e-19)
(0.265539 0.609996 -1.52897e-19)
(-0.0158242 0.724115 -3.81451e-20)
(0.219003 0.598786 -2.38725e-19)
(0.35554 1.05506 1.21602e-19)
(-0.0302441 0.727372 1.59204e-19)
(0.213639 0.945504 1.69827e-20)
(0.405654 1.22069 -2.47772e-19)
(0.273753 1.26924 -2.25868e-19)
(0.101306 1.34586 1.93362e-19)
(0.208162 1.5476 1.54595e-19)
(0.324372 1.93351 9.90716e-20)
(0.451223 1.66706 2.34825e-19)
(0.48655 3.08266 -9.91515e-19)
(0.270893 1.46286 2.86048e-19)
(0.405126 3.26067 -6.25849e-19)
(0.00955553 0.037194 0)
(0.000624006 0.0737902 0)
(0.00392588 0.104485 6.1393e-20)
(0.0156868 0.109325 6.53394e-21)
(0.0184625 0.0831851 -7.43491e-21)
(0.0146658 0.0613984 0)
(0.0205345 0.0101813 0)
(0.0242706 -0.0233941 9.59546e-21)
(0.0235718 0.00309844 2.12013e-20)
(0.025536 0.0350345 -3.45113e-20)
(0.0290066 0.0712997 -4.31319e-20)
(0.0298894 0.097014 2.724e-20)
(0.0325356 0.115225 -7.33011e-20)
(0.0405336 0.129508 7.94204e-20)
(0.0438985 0.142081 2.1705e-20)
(0.0392851 0.116939 1.4494e-19)
(0.0654211 0.12103 0)
(0.0492762 0.104224 4.64715e-20)
(0.0510433 0.0897576 -7.22185e-20)
(0.0696753 0.0791954 -2.36591e-20)
(0.0789328 0.0591141 0)
(0.0778703 0.0821404 -7.93458e-20)
(0.0937638 0.101091 1.60492e-19)
(0.102021 0.150885 -2.56785e-19)
(0.101444 0.141439 1.63044e-19)
(0.141173 0.293818 -9.99786e-20)
(0.114201 0.140382 4.43391e-20)
(0.137571 0.220381 1.0371e-19)
(0.174365 0.487893 -1.17057e-19)
(0.109335 0.217074 -9.79604e-20)
(0.207018 0.334826 6.64059e-20)
(0.215839 0.440467 1.62969e-19)
(0.181883 0.472257 -2.0051e-19)
(0.215054 0.489283 0)
(0.301617 0.355588 0)
(0.330261 0.808922 1.38024e-19)
(0.0974893 0.512712 1.22864e-19)
(0.539902 0.675214 -8.33931e-20)
(0.374172 0.803819 -3.6127e-19)
(0.274123 0.695288 2.58172e-19)
(0.700944 1.04434 1.60646e-19)
(0.140256 0.623542 3.43893e-19)
(0.739464 1.6809 -8.09574e-19)
(0.676454 0.993251 -4.05541e-19)
(0.332178 1.45416 2.52838e-19)
(1.07962 1.22261 -2.66539e-19)
(0.476956 2.78465 -6.6383e-19)
(0.71079 1.33792 5.91617e-19)
(1.09096 2.89185 -3.91626e-19)
(0.960135 3.29756 7.79328e-19)
(0.0101987 0.0271267 1.358e-21)
(0.00585237 0.0649222 -2.2044e-21)
(0.0040953 0.0774207 5.6098e-20)
(0.0172994 0.085797 -3.3661e-20)
(0.0201027 0.0723974 -3.49391e-20)
(0.0186037 0.0549882 -5.02303e-20)
(0.0256631 -0.00489409 1.8894e-22)
(0.0279725 -0.02956 -9.60838e-21)
(0.0272623 -0.000382832 -1.23932e-20)
(0.0290559 0.0263849 1.3331e-20)
(0.0346683 0.0545858 9.48555e-20)
(0.0363522 0.086322 -6.38596e-20)
(0.041932 0.087477 0)
(0.0502525 0.110176 -3.86675e-20)
(0.0577564 0.121128 -1.31454e-20)
(0.0556069 0.0852627 -1.33784e-19)
(0.0721485 0.100474 -7.53501e-20)
(0.0700368 0.087755 7.2653e-20)
(0.064237 0.0537837 8.51197e-20)
(0.105547 0.0267604 5.4628e-20)
(0.0776579 0.0413811 -3.95368e-20)
(0.102266 0.0501997 4.27328e-20)
(0.111621 0.117238 7.65523e-20)
(0.098099 0.0880957 -8.28939e-20)
(0.149536 0.0810183 -7.20393e-20)
(0.162538 0.240055 -1.09028e-19)
(0.15201 0.155815 0)
(0.180954 0.237519 -4.89613e-20)
(0.199536 0.31671 2.08426e-19)
(0.211701 0.155019 1.24661e-19)
(0.247329 0.328692 0)
(0.274386 0.380094 -1.38868e-19)
(0.258479 0.384807 3.72851e-20)
(0.34381 0.361403 3.03384e-20)
(0.324271 0.142633 -4.28409e-19)
(0.488951 0.812671 9.42421e-20)
(0.246767 0.407834 1.3577e-19)
(0.643966 0.280097 0)
(0.442437 0.668102 -3.28046e-19)
(0.645866 0.822256 5.62261e-19)
(0.582555 0.733905 -4.11474e-19)
(0.689122 0.639685 -2.24553e-19)
(0.836582 1.05774 -2.17903e-19)
(0.75093 1.15041 6.95525e-19)
(0.824211 1.2902 3.49119e-19)
(1.05629 1.18372 6.56039e-19)
(1.03345 2.64914 -2.29857e-19)
(1.00295 0.731873 2.45721e-19)
(1.39583 3.27634 3.86935e-19)
(1.28824 2.56257 -3.95051e-19)
(0.00865687 0.0189528 2.5517e-22)
(0.00533573 0.0456301 4.66141e-22)
(0.00867555 0.0601274 -3.61816e-20)
(0.0140555 0.0651174 3.67579e-20)
(0.0196855 0.0600011 3.73456e-20)
(0.0215497 0.042879 3.92165e-20)
(0.0270387 -0.0199215 1.63628e-20)
(0.0265819 -0.0320175 3.5962e-21)
(0.0269372 -0.00753059 1.47774e-20)
(0.0301275 0.0170196 -1.09064e-20)
(0.0335675 0.0438281 0)
(0.0374387 0.0617679 6.32753e-20)
(0.0445858 0.0699908 1.88677e-20)
(0.0501377 0.0817206 8.03574e-20)
(0.055632 0.0931977 -6.47089e-20)
(0.0672511 0.0902649 1.01186e-19)
(0.0648393 0.0836359 7.85401e-20)
(0.0796706 0.0753267 -4.42764e-20)
(0.0764445 -0.00347562 -3.55209e-20)
(0.0886939 0.0137802 3.83183e-20)
(0.102281 0.0300573 0)
(0.0988366 -0.0237021 -5.04149e-20)
(0.145054 0.0663629 -2.12763e-20)
(0.107945 0.0610757 1.47587e-19)
(0.156105 0.0398652 -1.23706e-19)
(0.168543 0.113535 1.08982e-19)
(0.17977 0.141515 7.53674e-20)
(0.187471 0.178435 -2.5034e-19)
(0.227124 0.183823 1.19261e-19)
(0.258187 0.183362 6.84404e-20)
(0.265388 0.187088 -2.85967e-19)
(0.313488 0.267704 2.04218e-19)
(0.296041 0.279975 -1.11785e-19)
(0.447831 0.212703 4.05456e-19)
(0.29096 0.297896 -1.82798e-20)
(0.442428 0.530722 0)
(0.589339 0.0987652 0)
(0.511964 0.56036 3.93672e-20)
(0.353075 0.499692 -1.3011e-19)
(0.949308 0.43249 3.79794e-19)
(0.637841 0.472042 1.86463e-19)
(0.764527 0.811037 5.88349e-19)
(0.919776 0.861374 -1.7341e-19)
(1.05312 0.941206 0)
(1.09387 0.724369 -4.48725e-20)
(1.23689 1.60809 -4.18088e-19)
(1.36417 1.7709 0)
(1.64803 1.31267 4.20623e-19)
(1.34424 2.11934 2.4845e-21)
(2.06293 3.33585 -5.64481e-19)
(0.00769297 0.0120042 0)
(0.00371161 0.0323815 -6.88329e-20)
(0.00687364 0.0434803 -6.28163e-20)
(0.0136333 0.0472633 -1.73081e-21)
(0.018179 0.0431978 6.41042e-21)
(0.0213848 0.0276723 -2.36322e-20)
(0.0246217 -0.0244822 -3.66523e-20)
(0.0245127 -0.0285043 -1.18221e-20)
(0.0231125 -0.00914058 -1.17782e-21)
(0.0246163 0.0131709 1.24636e-21)
(0.0328397 0.0365012 0)
(0.0317548 0.0452588 4.92304e-21)
(0.0410025 0.0591042 -1.63128e-20)
(0.0478641 0.0667946 -2.50551e-20)
(0.0513713 0.0722649 0)
(0.0656031 0.066815 -2.42872e-20)
(0.0603649 0.0498245 1.09741e-21)
(0.0813103 0.0329633 -2.00585e-20)
(0.0733787 -0.0394926 1.1749e-20)
(0.0856013 -0.00564347 0)
(0.0999569 -0.0246869 1.84968e-20)
(0.0768628 -0.0305419 -1.98657e-20)
(0.140644 0.0725311 0)
(0.0931298 0.0143292 -2.50927e-20)
(0.152851 0.0300311 7.30058e-20)
(0.140755 0.0842483 0)
(0.156251 0.120774 2.23046e-20)
(0.203946 0.125295 -6.3819e-20)
(0.229485 0.0844079 5.59886e-20)
(0.233696 0.116242 8.84546e-20)
(0.271894 0.149639 -7.54569e-20)
(0.307304 0.18019 1.21353e-19)
(0.354676 0.130155 3.05157e-20)
(0.402627 0.193622 -1.63319e-19)
(0.401256 0.265119 -1.2102e-19)
(0.470419 0.0778114 -1.00298e-19)
(0.548753 0.158301 0)
(0.7071 0.563952 1.77909e-19)
(0.498944 -0.0772151 -4.10007e-19)
(0.920522 0.460485 1.78475e-19)
(0.72201 0.440076 -2.16045e-19)
(0.986725 0.613277 2.03672e-19)
(1.02114 0.331568 0)
(1.20912 0.703819 -6.4474e-19)
(1.3345 0.839085 7.89256e-19)
(1.43617 1.25509 -8.84832e-19)
(1.63033 1.25386 -3.60069e-20)
(1.65638 1.16405 2.74773e-19)
(2.13917 1.88755 -7.73554e-20)
(2.55007 2.44699 5.7634e-19)
(0.00557769 0.00669419 1.07919e-19)
(0.00321892 0.0198967 7.001e-20)
(0.00698505 0.0283156 6.58098e-20)
(0.0115151 0.0333719 -5.31786e-21)
(0.0160593 0.0310497 5.65988e-21)
(0.0200531 0.0185776 2.66327e-20)
(0.0171473 -0.0257825 2.69435e-20)
(0.0168625 -0.0267847 7.19721e-20)
(0.0165673 -0.0122778 -1.15214e-20)
(0.0220371 0.00321029 -1.08014e-20)
(0.0270823 0.0245827 1.15993e-20)
(0.0291149 0.0278114 4.82978e-20)
(0.0375264 0.0415585 -7.02405e-20)
(0.0389406 0.0493486 -1.00686e-20)
(0.0474138 0.056039 1.9547e-20)
(0.0534682 0.0561214 -1.69724e-20)
(0.0514911 0.0461223 8.71388e-21)
(0.0632521 0.0273272 -2.67858e-20)
(0.044954 -0.0355279 -1.61568e-21)
(0.0705909 -0.0190145 -1.91623e-21)
(0.056273 -0.0158203 -6.24328e-21)
(0.0908376 -0.0437854 2.82535e-21)
(0.0888067 0.0189988 0)
(0.108256 -0.0244296 0)
(0.154365 0.026622 -1.0041e-20)
(0.0998662 0.038648 -2.30154e-20)
(0.189561 0.0675833 -2.96495e-20)
(0.167547 0.0747902 3.14356e-20)
(0.186012 0.0497302 -9.02729e-20)
(0.22395 0.0683393 0)
(0.251822 0.0649667 0)
(0.279484 0.123032 0)
(0.231705 0.0335967 2.14444e-19)
(0.416104 0.105778 -1.3032e-20)
(0.387343 0.179693 0)
(0.344559 -0.109827 9.87729e-20)
(0.597197 0.126835 -1.04523e-19)
(0.588806 0.220537 1.18775e-19)
(0.448275 -0.060758 0)
(0.967598 0.285584 0)
(0.571363 0.174187 -1.73842e-19)
(1.02956 0.199796 1.58871e-19)
(1.04829 0.180632 -1.99619e-19)
(1.29505 0.464386 -1.64952e-19)
(1.08651 0.405189 2.00783e-20)
(1.96756 0.862668 4.50795e-19)
(1.72614 0.902003 -1.97083e-19)
(1.8952 0.963866 -1.20542e-19)
(2.14595 1.38997 -1.71673e-19)
(2.11965 1.52137 -8.6872e-20)
(0.00230625 0.00277515 -1.06904e-19)
(0.00225816 0.00859524 0)
(0.00589492 0.0136244 1.31679e-19)
(0.00910949 0.0153635 0)
(0.0149385 0.016741 0)
(0.0237418 0.017078 0)
(0.0211676 -0.00354915 0)
(0.0197564 -0.0237251 -6.23937e-20)
(0.015806 -0.017067 -8.15289e-20)
(0.014233 -0.00559216 6.54695e-20)
(0.0207199 0.0167407 1.36323e-19)
(0.0166274 0.0336473 -9.04688e-20)
(0.0277506 0.037006 9.37836e-20)
(0.0288844 0.0448645 0)
(0.0405675 0.0369586 0)
(0.056729 0.0484461 0)
(0.0566892 0.0421857 -1.70909e-19)
(0.0978175 0.0389 2.09934e-19)
(0.072395 -0.0203952 0)
(0.0942267 -0.0256143 7.27264e-20)
(0.101231 -0.0380923 0)
(0.0826979 -0.0716964 4.96667e-20)
(0.128571 -0.0370645 3.84584e-20)
(0.084057 -0.0544849 -8.10505e-20)
(0.154888 0.000472063 1.98999e-20)
(0.125773 0.030187 3.76325e-20)
(0.172767 0.0109634 -7.77551e-22)
(0.182601 0.0210213 3.8999e-20)
(0.191487 0.0361613 4.82131e-21)
(0.230995 0.047406 -3.1945e-20)
(0.204672 0.0324792 6.64548e-20)
(0.310476 0.0929202 -8.57247e-20)
(0.303945 0.0442834 1.19844e-19)
(0.262886 0.0730637 -1.58166e-19)
(0.481248 0.141336 -2.59951e-20)
(0.323524 -0.0110626 1.82856e-19)
(0.466907 0.024917 -6.64252e-20)
(0.694855 0.227755 -1.5859e-19)
(0.479277 -0.00145434 0)
(0.890957 0.140377 0)
(0.73092 0.205729 -1.12007e-19)
(0.913591 0.0305959 1.27509e-19)
(1.18066 0.0849119 -1.14892e-19)
(1.1829 0.329138 -8.85536e-20)
(1.67129 0.424063 1.43547e-19)
(1.73075 0.517026 -1.56933e-19)
(2.05605 0.193934 1.7195e-19)
(2.68591 0.885121 -1.9243e-21)
(2.74526 1.50346 -9.78194e-20)
(3.237 1.68779 2.08242e-19)
(0.0132776 0.00742521 0)
(0.00707681 0.000776555 1.51016e-19)
(0.0156657 0.00224812 -5.33843e-18)
(0.0191202 0.00168414 2.83534e-18)
(0.0137997 0.00307121 -3.92311e-19)
(0.0178296 0.00205953 4.20846e-19)
(0.0206763 0.00248208 -1.35171e-18)
(0.015603 0.00917385 -1.00796e-18)
(0.0202692 0.00795127 6.50781e-19)
(0.0224596 0.00318569 -2.44393e-18)
(0.0220495 0.00255186 -5.14253e-18)
(0.0241312 0.00339939 -1.97029e-18)
(0.0264001 0.00348549 -7.45889e-19)
(0.0292852 -0.000563702 0)
(0.0358594 -0.00167929 0)
(0.0394799 -0.000832796 0)
(0.0249535 0.00625896 4.0481e-18)
(0.0158481 0.0149625 -4.25592e-18)
(0.0220731 0.0201454 9.85168e-19)
(0.0277241 0.0250081 -2.32744e-18)
(0.0344471 0.0277624 -2.06045e-18)
(0.0411734 0.0259801 -2.15502e-18)
(0.0462974 0.0288659 1.96586e-18)
(0.0426808 0.0314805 2.7545e-18)
(0.0424931 0.0270169 -7.77871e-19)
(0.0646528 0.00430199 -1.12388e-18)
(0.075291 0.000308696 0)
(0.0900263 -0.0092554 -9.99189e-19)
(0.0469213 -0.0194827 1.93277e-19)
(-0.00570427 -0.0270514 -9.13237e-20)
(-0.0612227 -0.00280052 -5.13192e-20)
(-0.121034 0.0476405 0)
(-0.219996 0.137519 6.67423e-19)
(-0.254925 0.275501 -7.25554e-19)
(-0.171024 0.645892 -2.4243e-18)
(0.00831649 0.936405 2.25723e-19)
(0.474167 0.915473 1.72464e-18)
(0.7928 1.30457 0)
(1.54486 2.24699 8.69651e-20)
(2.45733 2.98254 -6.91884e-19)
(3.35212 3.20813 3.66729e-19)
(4.54335 2.18267 0)
(5.76646 0.263027 8.33106e-19)
(6.52294 -1.83072 -2.26683e-19)
(7.76772 -2.17004 0)
(8.22421 -1.28435 -4.47704e-19)
(8.10841 -5.3916 -4.56984e-19)
(9.16547 -10.4546 -1.17411e-18)
(8.86708 -12.8065 1.82836e-18)
(10.9554 -18.8128 -3.14599e-18)
(0.0196471 0.00827578 2.24376e-18)
(0.0224527 0.000532172 2.3264e-18)
(0.0207188 0.00180185 2.70981e-18)
(0.0232146 0.00254728 -2.85443e-18)
(0.0238384 0.0024166 -1.49839e-18)
(0.023811 0.00275382 0)
(0.0261764 0.00303651 1.83064e-18)
(0.027101 0.00313604 0)
(0.0268167 0.0027279 2.67363e-18)
(0.0290927 0.00282155 -5.62344e-19)
(0.0304057 0.0035231 2.50267e-18)
(0.031986 0.00442724 2.68699e-18)
(0.0341225 0.00525134 -2.59292e-18)
(0.0358069 0.00645103 2.7343e-18)
(0.0378475 0.00889506 0)
(0.0419793 0.00937932 -7.81656e-19)
(0.0439582 0.0138313 8.41648e-19)
(0.0471945 0.0181944 0)
(0.0487503 0.0240528 -8.3639e-19)
(0.0531041 0.0263738 6.48635e-20)
(0.0549472 0.0256333 9.01863e-19)
(0.056881 0.0276801 -1.57984e-18)
(0.0570258 0.0249536 7.60261e-19)
(0.0556932 0.0194185 -1.59917e-18)
(0.0707193 0.0352798 1.67968e-18)
(0.0927342 0.050144 -1.99025e-18)
(0.112776 0.044428 4.55252e-19)
(0.0747149 0.0451663 -4.92837e-19)
(-0.00382231 0.0482458 0)
(-0.0318093 0.0752385 -1.26445e-19)
(-0.121032 0.146346 5.70645e-20)
(-0.210877 0.275589 -2.13178e-19)
(-0.185924 0.456125 5.82488e-19)
(-0.0742307 0.828028 -3.82326e-19)
(0.266703 1.2636 4.12335e-19)
(0.58798 1.47968 9.42475e-19)
(1.02739 1.79527 -2.66885e-19)
(1.57729 2.05639 3.05021e-19)
(2.01013 1.56572 1.30848e-18)
(3.20055 1.4976 1.93451e-19)
(4.37474 1.02093 1.19812e-19)
(4.87903 -0.124489 0)
(5.81176 -0.892429 -5.60764e-20)
(6.49241 -1.52786 1.19553e-19)
(7.13245 -2.43894 -8.75534e-19)
(7.90139 -4.45893 1.04932e-18)
(7.84164 -8.7631 1.97053e-18)
(7.04865 -8.76048 0)
(7.09737 -12.1303 2.77794e-18)
(2.28675 -14.2999 -6.27846e-18)
(0.0225124 0.00769596 -2.25568e-18)
(0.023149 -0.000783518 -3.49505e-18)
(0.0236532 0.000817408 -7.9745e-20)
(0.0243727 0.00278896 -1.70929e-19)
(0.0251149 0.00202317 1.69056e-18)
(0.0260582 0.00274516 -1.97081e-19)
(0.026687 0.00300689 3.22486e-22)
(0.0279342 0.00304795 -2.25561e-19)
(0.0292178 0.00369331 2.33863e-18)
(0.0302051 0.00442297 0)
(0.0317428 0.00503277 0)
(0.0338623 0.00589202 -1.1078e-18)
(0.0358372 0.00664762 2.61381e-18)
(0.0384101 0.0076511 -2.75726e-18)
(0.0415866 0.00800115 0)
(0.0452842 0.00889752 0)
(0.0519193 0.00871144 7.07945e-19)
(0.0574869 0.00780443 -7.62548e-19)
(0.0586086 0.00819523 1.41942e-18)
(0.0614485 0.00820031 0)
(0.0635782 0.0107509 -1.43169e-18)
(0.0668735 0.0136155 1.60157e-18)
(0.0678885 0.0147103 -1.54459e-18)
(0.082199 0.0222671 0)
(0.110754 0.0438463 6.74491e-19)
(0.0986147 0.0535284 6.03703e-19)
(0.0932927 0.0679298 4.38118e-19)
(0.0654044 0.0766072 -9.07425e-19)
(0.065493 0.100469 0)
(0.0881065 0.177866 -2.70951e-19)
(0.139708 0.264413 -1.85417e-19)
(0.240745 0.387514 0)
(0.463088 0.542553 6.36515e-20)
(0.71076 0.717494 -6.92638e-20)
(0.785683 0.668354 -4.215e-19)
(1.13894 0.597273 7.77902e-20)
(1.48082 0.588518 9.74241e-20)
(1.87531 0.311435 -1.85325e-19)
(2.25702 0.193613 -1.77555e-19)
(2.74783 0.193303 -4.49326e-19)
(3.17607 -0.426515 1.49743e-19)
(3.48774 -0.914449 3.08383e-19)
(4.29504 -1.32261 5.80425e-20)
(4.61045 -2.42695 3.09052e-19)
(4.24714 -3.73498 8.14377e-20)
(3.9946 -5.75279 7.86542e-20)
(4.13201 -7.68492 -1.04436e-18)
(3.92307 -8.05756 3.90286e-18)
(2.29041 -11.984 -2.53589e-18)
(1.69458 -12.3526 0)
(0.0238083 0.00634096 -1.00786e-18)
(0.024555 -0.00122459 2.23433e-18)
(0.0245203 0.000327177 -7.46787e-20)
(0.0257206 0.00129282 1.30482e-18)
(0.0262309 0.000682162 1.30786e-18)
(0.0271354 0.00072178 -1.21404e-18)
(0.0278873 0.000432139 -1.68519e-18)
(0.0293973 0.000544085 0)
(0.0309512 0.000252759 -1.86297e-18)
(0.0325174 0.000202187 0)
(0.0346174 7.16179e-05 -4.94221e-19)
(0.0371632 8.88399e-05 1.64676e-18)
(0.0394751 -0.000234265 -1.05129e-18)