/*--------------------------------*- C++ -*----------------------------------*\
| =========                 |                                                 |
| \\      /  F ield         | OpenFOAM: The Open Source CFD Toolbox           |
|  \\    /   O peration     | Version:  2.3.1                                 |
|   \\  /    A nd           | Web:      www.OpenFOAM.org                      |
|    \\/     M anipulation  |                                                 |
\*---------------------------------------------------------------------------*/
FoamFile
{
    version     2.0;
    format      ascii;
    class       volScalarField;
    location    "47";
    object      p;
}
// * * * * * * * * * * * * * * * * * * * * * * * * * * * * * * * * * * * * * //

dimensions      [0 2 -2 0 0 0 0];

internalField   nonuniform List<scalar> 
4825
(
3.15566
3.15748
3.16086
3.16474
3.16955
3.17444
3.1797
3.18544
3.1918
3.20261
3.21647
3.232
3.24264
3.25665
3.27698
3.29578
3.32536
3.35349
3.38573
3.42319
3.46031
3.50551
3.55044
3.61039
3.66364
3.72767
3.80165
3.8751
3.95041
4.03949
4.13687
4.22504
4.34448
4.47472
4.61835
4.75771
4.9157
5.0934
5.28958
5.51187
5.7557
6.05298
6.3271
6.66133
7.04675
7.44259
7.89245
8.24852
8.6448
8.81895
3.17721
3.18256
3.1932
3.20364
3.21309
3.22367
3.23451
3.24595
3.25941
3.27406
3.28989
3.30918
3.32806
3.35059
3.37777
3.40847
3.44623
3.48267
3.5271
3.57454
3.6226
3.67854
3.73673
3.80032
3.87105
3.95421
4.03207
4.12873
4.23604
4.33522
4.46335
4.60672
4.75739
4.91286
5.11007
5.30428
5.5281
5.76075
6.03354
6.34296
6.66118
7.04527
7.49993
7.96833
8.57881
9.14124
9.89762
10.6697
11.548
12.606
3.21564
3.22157
3.23598
3.25026
3.26171
3.27469
3.28948
3.30474
3.32237
3.34393
3.36629
3.39209
3.42063
3.45048
3.4865
3.52272
3.56689
3.61786
3.66547
3.72302
3.78668
3.85435
3.92633
4.01428
4.10438
4.20705
4.31351
4.431
4.55921
4.69049
4.85188
5.00852
5.20181
5.40255
5.63738
5.87781
6.15727
6.47887
6.81513
7.21056
7.64992
8.15533
8.73126
9.35562
10.14
10.957
11.9348
13.1258
14.457
16.2772
3.25976
3.26424
3.27974
3.29595
3.30793
3.32273
3.34024
3.35941
3.38121
3.40654
3.43394
3.46397
3.49924
3.53786
3.58068
3.62942
3.68405
3.74411
3.80962
3.88677
3.96064
4.03744
4.12691
4.23027
4.33904
4.45963
4.59151
4.72676
4.89021
5.05094
5.24515
5.44349
5.66864
5.92068
6.20006
6.50861
6.8371
7.24886
7.64703
8.11241
8.66315
9.2966
10.0194
10.8024
11.7504
12.816
13.9754
15.4706
17.1946
19.248
3.29216
3.29405
3.30795
3.32414
3.33619
3.35169
3.37107
3.39328
3.41811
3.44738
3.48189
3.51755
3.56015
3.60691
3.658
3.71619
3.77842
3.84942
3.92334
4.00664
4.1009
4.19542
4.30393
4.42128
4.5397
4.68087
4.83554
5.00285
5.19375
5.37214
5.59742
5.83555
6.08553
6.39351
6.69829
7.07588
7.46841
7.92894
8.41824
8.95771
9.62322
10.3365
11.1541
12.0671
13.1852
14.3894
15.7986
17.4939
19.4076
21.8368
3.2882
3.28854
3.29854
3.31312
3.32555
3.34197
3.3615
3.38602
3.41553
3.44841
3.48654
3.52735
3.57606
3.62959
3.68588
3.75011
3.82177
3.9011
3.98616
4.07879
4.18394
4.28822
4.4061
4.54464
4.68034
4.83405
5.00968
5.18724
5.39169
5.61294
5.85202
6.12624
6.40887
6.75701
7.11546
7.51367
7.96843
8.45687
9.03022
9.64116
10.3568
11.1438
12.0721
13.0931
14.2972
15.6621
17.2052
19.1117
21.094
23.6607
3.21988
3.22056
3.22915
3.24286
3.2567
3.27473
3.29474
3.32069
3.35216
3.38626
3.42526
3.46727
3.51933
3.57676
3.63882
3.70884
3.784
3.86697
3.95679
4.05379
4.16103
4.28098
4.40551
4.54314
4.69203
4.85954
5.0433
5.22646
5.44273
5.69324
5.93276
6.21338
6.54788
6.88443
7.26505
7.70124
8.15269
8.68003
9.29794
9.93065
10.669
11.5562
12.5288
13.6213
14.7956
16.2811
17.9677
19.8024
22.0062
24.4341
3.0701
3.07493
3.0864
3.10135
3.11864
3.13895
3.16092
3.18786
3.21928
3.25294
3.29028
3.33283
3.38125
3.43607
3.49766
3.56638
3.64126
3.72358
3.81306
3.90999
4.01626
4.13095
4.2535
4.39133
4.53753
4.69369
4.88063
5.07781
5.28286
5.52215
5.77583
6.05392
6.35463
6.7107
7.10217
7.51483
7.9879
8.52843
9.12591
9.79751
10.5513
11.428
12.3765
13.5001
14.7603
16.183
17.9315
19.8179
22.0206
24.4313
2.84452
2.85712
2.87543
2.89283
2.91336
2.93377
2.95612
2.98384
3.01341
3.0454
3.08155
3.12266
3.16527
3.21612
3.27394
3.33667
3.40409
3.478
3.56127
3.64965
3.74707
3.8507
3.96381
4.08977
4.22648
4.3646
4.53254
4.7179
4.89901
5.11302
5.36331
5.62748
5.90128
6.22799
6.59067
6.97811
7.43246
7.92469
8.51597
9.13478
9.79947
10.6956
11.6318
12.6425
13.8934
15.2923
16.9096
18.8885
20.8964
23.5282
2.57717
2.59909
2.62216
2.64476
2.66979
2.691
2.71348
2.7404
2.76843
2.79752
2.83015
2.8649
2.90242
2.94442
2.99056
3.03816
3.09647
3.16301
3.22744
3.30186
3.38653
3.47208
3.56481
3.6729
3.78287
3.90319
4.0431
4.18889
4.35708
4.53203
4.73189
4.97428
5.21994
5.4883
5.81021
6.16052
6.52962
6.98361
7.52349
8.03643
8.7125
9.46542
10.2771
11.2798
12.3871
13.7269
15.2429
17.0636
19.0533
21.603
2.31046
2.34005
2.36627
2.39283
2.42006
2.44197
2.46391
2.48838
2.51332
2.53758
2.56441
2.59246
2.62117
2.65378
2.69004
2.72549
2.76853
2.81554
2.86171
2.91927
2.98549
3.0552
3.12884
3.203
3.28753
3.39086
3.48559
3.59902
3.73365
3.86157
4.02062
4.20112
4.38724
4.60185
4.85768
5.15996
5.44183
5.79997
6.24407
6.70452
7.25071
7.83351
8.59604
9.41865
10.3719
11.5092
12.8875
14.457
16.3692
18.6113
2.07732
2.10814
2.13718
2.16442
2.18987
2.21158
2.23244
2.2533
2.27388
2.29365
2.31437
2.3359
2.35673
2.38
2.402
2.4247
2.45389
2.48815
2.52617
2.56198
2.60654
2.65266
2.7044
2.75289
2.80346
2.87945
2.95088
3.02761
3.11293
3.20255
3.31177
3.43376
3.56328
3.72966
3.90771
4.1178
4.3528
4.62542
4.90872
5.26342
5.70308
6.14384
6.72207
7.37595
8.1501
9.06287
10.18
11.5019
13.1522
15.0908
1.89925
1.92536
1.95006
1.97408
1.99742
2.01697
2.0342
2.05212
2.06894
2.08266
2.09817
2.11288
2.12465
2.13817
2.1501
2.16494
2.18186
2.20426
2.22829
2.2508
2.2794
2.29812
2.32831
2.35312
2.37903
2.42363
2.45449
2.49603
2.55277
2.60723
2.6648
2.73545
2.82405
2.92464
3.03715
3.17739
3.31015
3.49891
3.67419
3.89885
4.18184
4.47943
4.86445
5.31568
5.85036
6.4979
7.28629
8.23125
9.44789
11.0284
1.77908
1.79723
1.81497
1.83261
1.84924
1.86408
1.87583
1.88719
1.89708
1.90609
1.91521
1.92239
1.93043
1.93819
1.94526
1.95255
1.95823
1.96642
1.97392
1.98391
1.99267
2.0052
2.02147
2.02732
2.04459
2.05608
2.069
2.08887
2.09427
2.10982
2.14126
2.17099
2.19368
2.24255
2.29934
2.34032
2.41459
2.51159
2.54911
2.6815
2.8071
2.93893
3.13012
3.37558
3.60787
3.98583
4.4232
4.88564
5.5311
6.29982
1.71514
1.72093
1.72722
1.73442
1.74255
1.75274
1.75835
1.76217
1.76511
1.76642
1.76957
1.77001
1.77055
1.77191
1.77408
1.7807
1.78379
1.79435
1.79583
1.79215
1.79342
1.78497
1.78624
1.77764
1.77436
1.77205
1.76477
1.75986
1.74505
1.7398
1.72335
1.71816
1.71957
1.70443
1.70345
1.68851
1.66246
1.68032
1.64341
1.64977
1.63624
1.61094
1.62655
1.63288
1.6132
1.6738
1.61675
1.69524
1.6981
1.66584
0.743168
0.797829
0.838194
0.885871
0.927154
0.969912
1.01342
1.05581
1.10042
1.14628
1.19262
1.24076
1.29091
1.34401
1.39941
1.45529
1.51202
1.5712
1.6331
1.69807
1.76456
1.8296
1.89245
1.95139
2.0076
2.05905
2.11766
2.19186
2.26262
2.33553
2.41855
2.50603
2.58165
2.62332
2.64301
2.63917
2.56565
2.40949
2.28249
2.11135
1.78529
1.26493
0.484583
-0.548243
-1.83808
-3.35877
-5.16768
-7.24473
-9.38475
-11.349
0.932231
0.997731
1.03364
1.08008
1.12121
1.16245
1.20424
1.24634
1.28842
1.3309
1.37426
1.41854
1.46397
1.51061
1.55857
1.60828
1.66082
1.71494
1.76978
1.8246
1.87622
1.92492
1.97076
2.01257
2.0562
2.10359
2.15034
2.19311
2.23544
2.27295
2.30481
2.33213
2.33876
2.32684
2.3083
2.26921
2.1856
2.07025
1.82554
1.4809
1.0575
0.465048
-0.311058
-1.26858
-2.42752
-3.75952
-5.40322
-7.12271
-9.00313
-10.4234
1.14879
1.21099
1.24396
1.28631
1.32437
1.36185
1.40007
1.43744
1.47505
1.51278
1.5509
1.5896
1.62888
1.66908
1.71014
1.75245
1.79565
1.83825
1.87995
1.91925
1.95447
1.98605
2.01489
2.04226
2.06987
2.09192
2.11093
2.13041
2.14424
2.14923
2.15216
2.14446
2.11746
2.0754
1.99612
1.87319
1.71024
1.47919
1.16846
0.766695
0.265367
-0.345488
-1.09274
-2.01302
-3.06907
-4.26344
-5.6819
-7.25453
-8.87244
-10.4147
1.38779
1.44109
1.47021
1.50527
1.53885
1.57059
1.60251
1.6341
1.66552
1.6969
1.72832
1.75973
1.79131
1.82302
1.85477
1.88644
1.91721
1.9472
1.97495
1.99859
2.01957
2.03803
2.05327
2.06509
2.07259
2.07704
2.07612
2.07072
2.05563
2.03399
2.00029
1.94264
1.86309
1.76271
1.62924
1.44608
1.22546
0.966155
0.65191
0.25304
-0.251751
-0.86299
-1.59178
-2.42425
-3.41007
-4.59902
-6.02091
-7.58823
-9.16741
-11.0517
1.64153
1.68324
1.70727
1.73456
1.76207
1.78763
1.81351
1.83865
1.86388
1.88894
1.91369
1.93825
1.9624
1.98585
2.00839
2.02939
2.04861
2.06642
2.082
2.09487
2.10627
2.11459
2.11885
2.11889
2.11378
2.10466
2.08791
2.0606
2.02108
1.97097
1.90391
1.81587
1.71385
1.58952
1.42325
1.23213
1.00506
0.71819
0.345807
-0.112261
-0.647297
-1.23727
-1.93419
-2.76216
-3.81694
-5.03476
-6.3501
-7.808
-9.5313
-11.6411
1.90349
1.92982
1.94866
1.96724
1.98815
2.0073
2.02734
2.04692
2.06663
2.08624
2.10567
2.12463
2.14308
2.16068
2.1771
2.1921
2.20507
2.21616
2.22514
2.23185
2.23621
2.23719
2.23447
2.22706
2.21327
2.19203
2.16097
2.11976
2.06914
2.00528
1.92353
1.82674
1.70904
1.56033
1.37782
1.16609
0.905085
0.57942
0.203468
-0.208652
-0.695712
-1.25743
-1.96412
-2.83442
-3.82397
-4.95482
-6.25749
-7.8968
-9.85067
-12.1165
2.1583
2.17157
2.18372
2.19538
2.20961
2.22265
2.23793
2.2525
2.26785
2.28341
2.2989
2.31425
2.32907
2.34322
2.35625
2.36794
2.37796
2.38635
2.39279
2.39674
2.39825
2.39635
2.39057
2.3791
2.36114
2.33598
2.30194
2.25849
2.20493
2.1379
2.05265
1.95492
1.82899
1.67774
1.50751
1.29565
1.04587
0.757066
0.417106
0.0101968
-0.499993
-1.10981
-1.85208
-2.66602
-3.58513
-4.74328
-6.12488
-7.77517
-9.71059
-12.3045
2.39775
2.39739
2.40556
2.40771
2.41834
2.42541
2.43621
2.44751
2.45951
2.47216
2.48517
2.49832
2.51141
2.52418
2.53648
2.54799
2.55825
2.56689
2.57371
2.57854
2.58127
2.58049
2.5766
2.56758
2.55329
2.53228
2.50416
2.46682
2.41928
2.35986
2.28517
2.19429
2.08471
1.95169
1.79654
1.60014
1.36723
1.09395
0.751371
0.345458
-0.13346
-0.675685
-1.29789
-2.03591
-2.95431
-4.08771
-5.46207
-7.10747
-9.3082
-12.1502
2.60511
2.5943
2.60075
2.59515
2.60428
2.60656
2.61545
2.6238
2.63411
2.64518
2.6569
2.66944
2.68219
2.69502
2.70767
2.71992
2.73148
2.74281
2.75306
2.76142
2.76939
2.77336
2.77524
2.77341
2.76694
2.75513
2.73696
2.71255
2.67669
2.63284
2.57844
2.50403
2.42005
2.30918
2.17512
2.01573
1.81955
1.58821
1.30539
0.984073
0.59149
0.125159
-0.472219
-1.21876
-2.14374
-3.21017
-4.57653
-6.27223
-8.46076
-11.2636
2.78076
2.75758
2.76662
2.75353
2.76046
2.76134
2.76649
2.77361
2.78191
2.79171
2.80272
2.81472
2.82773
2.84145
2.85577
2.87077
2.88564
2.90048
2.91489
2.9285
2.9418
2.9535
2.9634
2.97151
2.97605
2.9783
2.97472
2.96721
2.95237
2.92852
2.89827
2.85193
2.7975
2.72429
2.63311
2.52471
2.38291
2.21399
1.99625
1.73004
1.37715
0.95192
0.416292
-0.224111
-0.99828
-1.97737
-3.2698
-4.96336
-6.92176
-9.73605
2.9133
2.88983
2.89458
2.88348
2.88479
2.88567
2.8889
2.8938
2.90083
2.90938
2.91941
2.93125
2.94445
2.95889
2.97458
2.99137
3.00904
3.02775
3.04702
3.06662
3.08647
3.10608
3.12514
3.1434
3.15976
3.1749
3.18829
3.19641
3.20354
3.2005
3.1956
3.18224
3.15756
3.12296
3.07021
3.00224
2.90437
2.78634
2.63007
2.44029
2.19374
1.89023
1.49777
1.00385
0.332021
-0.569719
-1.67243
-3.06674
-4.95847
-7.61714
3.01222
2.99043
2.99183
2.98285
2.98063
2.97997
2.98107
2.98447
2.98999
2.9976
3.00701
3.01827
3.03129
3.04574
3.06197
3.07989
3.09933
3.12063
3.14294
3.16691
3.19162
3.21718
3.24354
3.27035
3.29783
3.32378
3.35212
3.3752
3.39961
3.42147
3.43725
3.45347
3.45936
3.4609
3.4456
3.42969
3.39504
3.34442
3.27083
3.17322
3.04006
2.85012
2.58437
2.22809
1.7444
1.12716
0.270578
-0.816484
-2.67468
-4.9012
3.08074
3.06379
3.06151
3.05598
3.05195
3.05057
3.05105
3.05354
3.05848
3.0656
3.07447
3.08534
3.09814
3.11254
3.12883
3.14745
3.16757
3.19052
3.21493
3.24112
3.26989
3.29926
3.33183
3.36485
3.40255
3.43993
3.47992
3.52282
3.56195
3.61007
3.64964
3.69262
3.73296
3.77703
3.81371
3.8494
3.87399
3.89099
3.90286
3.88597
3.85475
3.7902
3.69065
3.5146
3.28675
2.89831
2.24859
1.37751
0.0347219
-1.78723
3.12549
3.11403
3.11054
3.10623
3.10286
3.10127
3.10176
3.1048
3.11066
3.11774
3.12623
3.13721
3.14991
3.16471
3.18155
3.2011
3.22249
3.24672
3.27336
3.30187
3.33483
3.3681
3.40699
3.44627
3.48945
3.5373
3.58295
3.64028
3.69388
3.75394
3.81504
3.88157
3.94455
4.0196
4.09239
4.15806
4.23051
4.29485
4.37082
4.43219
4.49358
4.53465
4.57384
4.543
4.48447
4.32918
4.0657
3.60674
2.9813
1.7101
3.14621
3.14219
3.13852
3.13719
3.13645
3.13718
3.13919
3.1414
3.14457
3.1516
3.16658
3.1818
3.19147
3.20399
3.2186
3.23569
3.25783
3.28052
3.30923
3.34001
3.37449
3.41321
3.45325
3.50359
3.54826
3.60413
3.6617
3.72325
3.78796
3.85718
3.9321
4.00828
4.09695
4.18948
4.28417
4.38043
4.4988
4.62537
4.7519
4.89246
5.05177
5.21228
5.36299
5.52475
5.66987
5.8197
5.94205
5.98099
5.84355
5.3271
-12.6964
-10.8377
-8.0141
-5.15109
-3.04031
-1.26731
0.164344
1.21955
1.95754
2.41499
2.71042
2.95763
3.11468
3.116
3.01837
2.93256
2.79255
2.64256
2.50517
2.37957
2.2843
2.21192
2.14912
2.09677
2.04071
1.9669
1.89838
1.82647
1.74638
1.66661
1.59105
1.52227
1.45987
1.39828
1.33569
1.27377
1.21501
1.16165
1.11262
1.06559
1.01778
0.971957
0.931937
0.890371
0.848897
0.810631
0.768477
0.726796
0.686867
0.650874
-14.8156
-12.5438
-8.73901
-5.56509
-3.27692
-1.27756
0.233182
1.31139
2.12121
2.79006
3.23963
3.45389
3.48803
3.40583
3.33714
3.16156
2.92984
2.74322
2.61228
2.50324
2.38226
2.26943
2.1917
2.15192
2.09317
2.01266
1.93679
1.85818
1.77794
1.69306
1.60936
1.52934
1.45225
1.37657
1.30676
1.24281
1.18023
1.1227
1.07164
1.02364
0.977087
0.930933
0.88734
0.845538
0.807104
0.770788
0.7357
0.700619
0.665448
0.634647
-18.1189
-14.5879
-10.2038
-6.9007
-4.18799
-1.96371
-0.276866
1.10594
2.21563
2.9953
3.44611
3.58001
3.60275
3.64332
3.5708
3.34728
3.1418
2.97645
2.78958
2.60923
2.45235
2.32836
2.25543
2.20863
2.13265
2.05432
1.98762
1.93186
1.85081
1.7516
1.65511
1.56626
1.47421
1.38351
1.30753
1.23922
1.17166
1.10933
1.05471
0.999571
0.942799
0.898103
0.859132
0.815626
0.77558
0.740807
0.707821
0.67611
0.643704
0.609841
-22.5858
-18.0063
-12.9795
-8.89654
-5.66438
-3.09869
-0.959919
0.764558
1.97703
2.82903
3.48196
3.77898
3.88598
3.98014
3.89502
3.66211
3.39345
3.17636
3.00365
2.81209
2.57149
2.3757
2.2928
2.24795
2.19032
2.13365
2.08037
2.00496
1.91276
1.8147
1.72173
1.62489
1.51626
1.40963
1.317
1.23524
1.1553
1.08566
1.03
0.976486
0.923514
0.873323
0.823136
0.778968
0.743078
0.704306
0.66596
0.634596
0.603882
0.576208
-28.5406
-22.9197
-16.2169
-11.1122
-7.3625
-4.2347
-1.73732
0.201001
1.65536
2.82567
3.60418
4.0313
4.32253
4.46813
4.42008
4.19195
3.89458
3.55818
3.23904
2.90906
2.66327
2.43671
2.29302
2.26075
2.21474
2.1612
2.15957
2.1124
2.016
1.90974
1.80101
1.67806
1.5534
1.43109
1.32187
1.22714
1.1415
1.06708
1.00334
0.936926
0.876399
0.823132
0.772954
0.720464
0.676514
0.638645
0.607339
0.575994
0.541289
0.515833
-36.4571
-28.8584
-19.9843
-14.063
-9.45125
-5.81383
-2.93046
-0.58786
1.33331
2.82573
3.78177
4.35845
4.7048
4.88447
4.83246
4.57657
4.21429
3.89701
3.60069
3.15985
2.63248
2.24572
2.19794
2.26901
2.29656
2.26434
2.19677
2.16497
2.14905
2.03989
1.89235
1.7775
1.6361
1.46766
1.31384
1.18097
1.082
1.0028
0.930721
0.88251
0.822424
0.750389
0.693908
0.646855
0.597382
0.551817
0.51364
0.481209
0.455894
0.433766
-46.1183
-36.1856
-25.6271
-17.5297
-11.9224
-7.74427
-4.27036
-1.48491
0.692491
2.2703
3.44281
4.33833
4.92129
5.15726
5.12193
4.91549
4.52672
4.09387
3.60988
3.23095
2.82302
2.37787
1.97687
1.83477
1.97549
2.15089
2.28354
2.33108
2.25104
2.2117
2.12759
1.92984
1.71396
1.48112
1.28472
1.1482
1.02864
0.936933
0.874275
0.807283
0.729582
0.671492
0.590317
0.528159
0.470292
0.416167
0.385156
0.370049
0.348434
0.323762
-57.6803
-45.7506
-32.1547
-21.4806
-15.0389
-10.1282
-6.34407
-3.40466
-1.05956
0.847327
2.30632
3.48263
4.38155
4.72415
4.80908
4.71253
4.43646
3.76432
3.0051
2.55829
2.07755
1.09136
0.919345
1.31359
1.6142
1.82843
2.14209
2.47377
2.59798
2.46109
2.24787
2.07998
1.88522
1.61398
1.24582
0.962
0.817308
0.749279
0.73109
0.737561
0.672946
0.524754
0.452039
0.386376
0.292212
0.276359
0.252616
0.202002
0.194919
0.193523
-69.9554
-55.8319
-39.2723
-26.5819
-18.7213
-13.5317
-9.61452
-6.41054
-3.78389
-1.53015
0.259588
1.57233
2.29498
2.74531
3.00517
3.073
3.0571
2.56198
1.67048
0.96893
0.433486
0.382204
-0.552891
-1.02426
-0.000551493
1.14288
1.75369
2.20366
2.69759
2.97831
3.05085
2.7495
2.3701
1.76424
1.20644
0.743006
0.367939
0.403462
0.504097
0.528607
0.491645
0.477708
0.372127
0.220489
0.0924133
-0.015256
-0.04496
0.020522
0.0470913
0.0824625
-82.8568
-66.3982
-46.432
-31.8461
-23.3027
-17.557
-13.1324
-10.0958
-8.05273
-6.8531
-5.90388
-4.43094
-2.67349
-1.50415
-1.12501
-1.12613
-1.64438
-3.11102
-5.64576
-8.76156
-11.8188
-11.5565
-11.3738
-7.51446
-3.31678
0.0823006
1.83185
2.86706
2.88469
2.87879
3.33755
3.0974
2.18542
1.25035
0.0538034
-0.00960228
-0.209344
0.193205
0.796614
1.10901
1.00021
0.298364
0.269713
0.027716
-0.573673
-0.182977
-0.501788
-0.593321
-0.185308
-0.193372
-95.534
-75.6448
-53.2499
-36.7486
-27.0011
-20.7076
-17.3026
-15.8291
-15.6435
-16.8165
-17.5387
-16.2326
-13.6048
-10.7837
-8.99595
-8.40726
-9.14188
-12.8979
-20.1419
-29.9579
-39.4122
-45.9928
-40.3534
-28.7227
-18.1678
-10.9514
-5.37189
-0.435343
1.90832
2.58361
2.4828
1.84212
-0.452655
-4.0211
-6.53329
-7.54668
-7.16505
-4.62236
-1.59852
1.18953
1.75261
1.72291
0.601112
-0.975436
-1.41083
-0.997309
-0.953844
-0.104227
0.199842
-0.2178
-104.838
-81.2118
-56.8922
-39.6354
-29.9153
-23.9809
-22.6056
-22.8408
-25.3056
-30.8615
-34.5961
-34.2182
-30.7162
-25.485
-20.9628
-18.2787
-17.7149
-18.9299
-23.1128
-32.7607
-46.9403
-59.2891
-57.0642
-44.2817
-30.2705
-19.8504
-12.1809
-7.73623
-7.17469
-5.92755
-4.71343
-4.7552
-6.63992
-10.1719
-15.114
-19.8903
-17.6544
-11.1712
-5.61313
-2.42064
-0.162701
0.745564
-1.30967
-3.84714
-5.68517
-6.35919
-4.09957
-1.96173
-0.0556431
0.377867
-105.593
-79.997
-55.7522
-39.3332
-29.2741
-24.8428
-25.9989
-28.3711
-34.7753
-46.603
-57.3212
-57.9801
-53.7504
-44.0295
-34.0924
-26.8906
-22.3144
-21.0185
-21.4047
-24.665
-30.5927
-34.3479
-33.6666
-30.073
-24.887
-20.8781
-18.4775
-17.8623
-19.2474
-20.4058
-19.5093
-16.8483
-14.1138
-12.2554
-11.6411
-11.6071
-10.897
-9.22496
-7.63914
-6.5766
-5.84224
-5.24385
-4.3399
-3.19005
-2.5284
-2.03289
-1.72813
-1.26404
-1.08961
-0.947579
-93.0906
-68.3287
-47.1213
-32.9398
-24.82
-22.899
-24.7444
-30.162
-42.1195
-60.7685
-83.2218
-91.7429
-78.5374
-59.3383
-41.7503
-28.9569
-20.8524
-15.8702
-13.43
-12.8794
-13.9444
-13.904
-12.6283
-11.6322
-11.3016
-11.9667
-14.5561
-19.7676
-28.043
-36.8744
-31.1059
-21.4386
-12.1984
-5.90666
-3.55017
-1.89853
0.194562
-1.4424
-4.61093
-8.32666
-11.5412
-10.39
-6.26691
-2.75489
-0.353499
0.501392
-0.739387
-1.71004
-2.7314
-2.28669
-68.4624
-47.6077
-32.1726
-21.4761
-16.324
-16.342
-19.3759
-27.6053
-41.8763
-61.3904
-83.5968
-90.7598
-73.8268
-50.4606
-33.3209
-21.8339
-14.2041
-9.54941
-6.62695
-4.50011
-3.08513
-2.17578
-1.57653
-1.15256
-1.19333
-2.86976
-6.65817
-12.0301
-15.4967
-15.0524
-14.0816
-9.66872
-5.14534
-0.795593
2.80565
3.94577
3.46096
1.80415
-0.622564
-2.45119
-2.90309
-3.10182
-1.89406
-0.156826
0.620525
0.220814
-0.0633761
-0.836294
-1.18062
-0.948483
-36.0915
-23.548
-14.0601
-7.57869
-5.64382
-7.27391
-11.658
-18.9412
-29.4325
-41.8031
-52.9315
-54.5192
-44.1623
-31.1348
-20.0303
-12.2246
-7.23509
-4.03151
-1.86318
-0.33388
0.723373
1.50738
2.10286
2.59463
2.91037
2.72925
1.87049
0.546034
-1.13384
-1.49529
-1.37728
0.0856509
1.50413
2.45247
2.75925
2.49818
1.7319
1.33447
0.737782
0.123892
0.219638
0.00873688
-0.328067
-0.193077
0.0558516
-0.291371
-0.297917
-0.177886
-0.451585
-0.593426
-17.0424
-5.26391
0.440555
3.92453
3.6028
1.18605
-2.24452
-7.02348
-13.4805
-20.4088
-24.47
-26.5886
-21.7361
-14.7962
-8.95421
-5.03808
-2.36462
-0.516493
0.859727
1.95892
2.74665
3.34075
3.84356
4.06087
3.9166
3.49919
2.89109
2.30508
1.92331
1.28065
0.597786
0.755997
1.14215
1.28983
1.32164
1.37965
1.35683
1.18383
0.875901
0.553768
0.202682
-0.107686
-0.105025
-0.0944295
-0.100094
-0.0436732
-0.0906873
-0.237831
-0.144041
-0.124301
-4.02487
5.73625
8.80421
10.2062
8.68168
6.10107
3.27383
0.000643598
-2.74456
-5.94284
-8.76347
-10.6306
-9.00605
-5.73545
-3.31179
-1.51888
-0.0341611
1.07536
1.87639
2.48935
3.03633
3.39576
3.4542
3.32415
3.23213
3.1653
2.8884
2.3886
1.69164
1.13261
0.981482
1.05028
1.12478
1.24484
1.31231
1.2098
1.01252
0.808397
0.626296
0.411085
0.251883
0.205883
0.148973
0.0969338
0.0622892
0.0214411
0.00427683
0.00337091
-0.0170676
-0.0600432
2.52
9.7521
11.6217
11.6144
9.98095
7.92835
5.84123
3.19823
0.110389
-1.28103
-2.37988
-3.52885
-3.26498
-2.13876
-0.949496
-0.00260861
0.784911
1.42797
1.95164
2.46192
2.77717
2.8665
2.86835
2.84784
2.67153
2.35782
2.07587
1.76105
1.50935
1.3745
1.23001
1.12499
1.10455
1.07779
0.994736
0.898244
0.793142
0.65767
0.521791
0.417086
0.329386
0.235965
0.170875
0.140574
0.129362
0.110044
0.0714135
0.0463948
0.0219645
0.00250613
2.45276
9.06527
10.8883
10.5016
8.91352
7.15564
5.63609
4.15115
2.23054
1.14397
0.0788525
-1.02543
-1.02381
-0.60324
-0.0462836
0.624755
1.23784
1.6573
1.95871
2.11496
2.19294
2.32053
2.30108
2.22771
2.15266
1.98821
1.75042
1.51719
1.31372
1.15863
1.07778
1.02058
0.95978
0.898283
0.82493
0.728278
0.65091
0.580207
0.493023
0.39936
0.321331
0.268456
0.225946
0.184747
0.152718
0.136081
0.118097
0.0952543
0.0768871
0.0616432
0.205844
6.2475
8.25369
8.25676
7.1509
6.06533
4.96681
3.81195
2.82785
1.39729
0.506444
0.101856
0.0006109
0.156147
0.436481
0.76666
1.14977
1.38978
1.52454
1.72694
1.95031
1.9891
1.91294
1.76431
1.62365
1.51262
1.3815
1.24043
1.13345
1.0501
0.955934
0.885997
0.828219
0.762539
0.693832
0.622498
0.550864
0.484245
0.41799
0.363719
0.319054
0.273104
0.235568
0.212098
0.189761
0.166363
0.141305
0.123228
0.114135
0.0977197
-2.93459
3.06233
5.30956
5.78555
5.18153
4.38041
3.92915
3.26277
2.1389
1.08596
0.51336
0.292423
0.228092
0.273909
0.509612
0.793536
1.0724
1.27959
1.37625
1.47923
1.52311
1.48338
1.47194
1.43181
1.35263
1.25672
1.14643
1.03555
0.942597
0.873376
0.816144
0.753536
0.692282
0.637843
0.582013
0.526745
0.479738
0.429837
0.375695
0.32886
0.291799
0.260544
0.237005
0.214786
0.189923
0.173589
0.162239
0.146428
0.133091
0.118912
-6.51912
-0.221102
2.46376
3.31901
3.29396
2.87688
2.42483
1.8792
1.28975
0.685732
0.284223
0.149107
0.20841
0.25677
0.3752
0.641247
0.904941
1.08717
1.11562
1.14683
1.22305
1.23944
1.19239
1.13493
1.08365
1.02143
0.943095
0.865585
0.802476
0.74683
0.690294
0.631905
0.584487
0.54148
0.493279
0.443812
0.4023
0.363205
0.323779
0.293597
0.272482
0.246698
0.22021
0.203162
0.188693
0.173849
0.16122
0.14939
0.13919
0.127379
-9.22176
-3.11907
-0.166804
1.14856
1.53773
1.42652
1.24232
0.920459
0.432225
0.0206356
-0.144896
-0.144065
-0.0467661
0.18144
0.360317
0.525527
0.671683
0.808913
0.91375
0.969182
1.01009
0.98888
0.937817
0.90352
0.867718
0.825085
0.771592
0.718164
0.669826
0.626059
0.583313
0.539431
0.499016
0.462649
0.425548
0.38782
0.353991
0.324234
0.295924
0.268486
0.24464
0.224383
0.20635
0.191676
0.178402
0.16528
0.153847
0.143272
0.133747
0.119556
-12.1484
-5.75526
-2.62155
-1.09813
-0.225888
0.176773
0.152704
0.0309103
-0.135448
-0.323555
-0.390004
-0.327709
-0.221002
-0.0456267
0.16862
0.370015
0.533422
0.637308
0.706779
0.749966
0.787428
0.804719
0.789932
0.759733
0.723387
0.6924
0.659476
0.623691
0.58777
0.55349
0.521917
0.491237
0.46094
0.430289
0.398617
0.369863
0.344485
0.319815
0.296728
0.275706
0.257313
0.239898
0.220651
0.205793
0.192832
0.177558
0.167076
0.148938
0.128337
0.110389
-16.056
-9.98906
-6.20173
-4.19253
-2.9961
-2.05516
-1.34711
-0.971339
-0.794256
-0.69629
-0.614603
-0.492731
-0.3651
-0.294201
-0.188817
-0.0355769
0.136338
0.275412
0.381746
0.45759
0.509511
0.558831
0.593345
0.612189
0.6194
0.611574
0.596828
0.580611
0.561589
0.539235
0.514767
0.491717
0.470106
0.449112
0.427072
0.404828
0.384133
0.364466
0.345571
0.327638
0.310613
0.295293
0.27979
0.264495
0.250012
0.236062
0.224401
0.206961
0.200967
0.16944
-20.4098
-14.4332
-10.4393
-7.69328
-5.89177
-4.73104
-3.83788
-3.09551
-2.46942
-2.01433
-1.691
-1.44935
-1.21776
-0.970955
-0.75737
-0.563931
-0.377362
-0.221109
-0.0877475
0.030603
0.127777
0.210187
0.278845
0.327134
0.367342
0.399227
0.421138
0.433528
0.442456
0.448128
0.448643
0.444938
0.437622
0.427987
0.416832
0.404489
0.39216
0.379741
0.367248
0.354582
0.341864
0.32916
0.316653
0.304215
0.291064
0.278527
0.267438
0.248494
0.247231
0.221155
-23.8948
-18.2169
-14.096
-11.1505
-8.8992
-7.20492
-5.9348
-4.99223
-4.24082
-3.55577
-2.96415
-2.50533
-2.13582
-1.82559
-1.56211
-1.30904
-1.07181
-0.852382
-0.658629
-0.481879
-0.329064
-0.203303
-0.0934795
-0.00121988
0.073237
0.136504
0.191022
0.236581
0.273091
0.3037
0.329373
0.34902
0.36026
0.368031
0.372564
0.374445
0.374699
0.373413
0.370746
0.366722
0.361596
0.355307
0.348112
0.340368
0.331199
0.322441
0.313825
0.298066
0.299777
0.273607
-26.7042
-21.2973
-17.1352
-13.9911
-11.5839
-9.6216
-8.06827
-6.82375
-5.84091
-5.03821
-4.3747
-3.79447
-3.25103
-2.77095
-2.36085
-2.01656
-1.71711
-1.44275
-1.20249
-0.988404
-0.789346
-0.617082
-0.471516
-0.341261
-0.229475
-0.132685
-0.0482374
0.0255039
0.0895317
0.144978
0.191036
0.230075
0.262851
0.289441
0.31173
0.330063
0.344626
0.35622
0.365159
0.371662
0.375809
0.377916
0.378123
0.376621
0.373448
0.369444
0.363187
0.353231
0.354512
0.332323
-28.5959
-23.4591
-19.3775
-16.1474
-13.6067
-11.5797
-9.86096
-8.41995
-7.24009
-6.2433
-5.42112
-4.73755
-4.15177
-3.61686
-3.12648
-2.70104
-2.32075
-1.97972
-1.68013
-1.42192
-1.19065
-0.983616
-0.800407
-0.636504
-0.491371
-0.364699
-0.253286
-0.155353
-0.0693028
0.00647287
0.0726829
0.130672
0.182239
0.227012
0.265659
0.298634
0.326538
0.350022
0.3696
0.385732
0.398805
0.408911
0.416323
0.421554
0.423998
0.424891
0.422314
0.417581
0.417992
0.400782
-29.6645
-24.6933
-20.6988
-17.4486
-14.7849
-12.7106
-10.9889
-9.51676
-8.26732
-7.18013
-6.22228
-5.39303
-4.69015
-4.10614
-3.58257
-3.11574
-2.70571
-2.33844
-2.0067
-1.71162
-1.45309
-1.22092
-1.01385
-0.829697
-0.664771
-0.517313
-0.38646
-0.269902
-0.166848
-0.0751343
0.00632115
0.0792245
0.143964
0.201426
0.252075
0.296151
0.334548
0.367734
0.396247
0.420632
0.441112
0.458118
0.471947
0.482885
0.490538
0.496247
0.497674
0.498588
0.497867
0.48789
-29.6526
-24.9366
-21.12
-18.0076
-15.3428
-13.1303
-11.331
-9.83204
-8.56689
-7.4969
-6.56709
-5.73123
-4.99594
-4.35043
-3.78719
-3.29163
-2.85002
-2.46667
-2.12647
-1.81653
-1.54485
-1.30072
-1.08163
-0.88694
-0.712123
-0.555875
-0.416272
-0.291451
-0.17953
-0.0793434
0.0104813
0.0912659
0.163569
0.228193
0.28588
0.336905
0.381877
0.421289
0.455765
0.485672
0.511545
0.533617
0.552232
0.567988
0.579654
0.589946
0.595706
0.600383
0.600898
0.597221
-28.7336
-24.2142
-20.4933
-17.5345
-15.1099
-13.005
-11.222
-9.6957
-8.39266
-7.27526
-6.34859
-5.54914
-4.85361
-4.22837
-3.68018
-3.1945
-2.75794
-2.37442
-2.03326
-1.72927
-1.45783
-1.21621
-0.999485
-0.805528
-0.630754
-0.47513
-0.335123
-0.210057
-0.0972975
0.00401698
0.0951897
0.177319
0.251229
0.317415
0.376526
0.429158
0.476051
0.517783
0.55474
0.587332
0.615901
0.640803
0.662455
0.680869
0.69596
0.710638
0.718416
0.729811
0.73164
0.737112
-26.8231
-22.6279
-19.1248
-16.2316
-13.8896
-11.9423
-10.3256
-8.94131
-7.7563
-6.70134
-5.82208
-5.01916
-4.35922
-3.76774
-3.25114
-2.80116
-2.39851
-2.04572
-1.72511
-1.44615
-1.19189
-0.966107
-0.764714
-0.583576
-0.42173
-0.276142
-0.145418
-0.0283606
0.0765443
0.171331
0.256497
0.333479
0.402673
0.464913
0.521394
0.572089
0.617424
0.657889
0.693969
0.725928
0.75457
0.779747
0.801795
0.821662
0.837689
0.855231
0.864294
0.880883
0.884364
0.899302
-24.2463
-20.1906
-16.9522
-14.3753
-12.1972
-10.4
-8.88123
-7.60577
-6.5579
-5.65541
-4.88354
-4.2063
-3.61432
-3.08598
-2.62666
-2.21961
-1.86031
-1.54789
-1.2671
-1.02283
-0.798651
-0.601986
-0.425314
-0.266176
-0.125232
0.00220448
0.116369
0.21933
0.311255
0.394936
0.46979
0.537807
0.599204
0.654358
0.704219
0.748797
0.789296
0.825855
0.858698
0.888443
0.915135
0.939154
0.960906
0.980419
0.997664
1.01666
1.0269
1.0485
1.05187
1.08034
-21.0692
-17.2951
-14.2669
-11.8992
-9.99855
-8.46808
-7.17549
-6.07821
-5.1568
-4.36806
-3.70423
-3.13893
-2.64781
-2.21231
-1.84646
-1.51356
-1.22055
-0.960232
-0.731782
-0.525499
-0.343041
-0.182632
-0.0342569
0.0946586
0.212239
0.31748
0.412373
0.498288
0.575406
0.645543
0.708104
0.765057
0.816284
0.862447
0.904543
0.942406
0.976785
1.00796
1.03616
1.06177
1.08541
1.10684
1.12669
1.14544
1.16305
1.18042
1.19459
1.21767
1.22437
1.2578
-17.0881
-13.8788
-11.3738
-9.35889
-7.69077
-6.37133
-5.29342
-4.42861
-3.69628
-3.06932
-2.53389
-2.07423
-1.67743
-1.33627
-1.04228
-0.778828
-0.553346
-0.348927
-0.171532
-0.00857732
0.131279
0.258431
0.372284
0.471323
0.564507
0.645546
0.721006
0.78855
0.849922
0.905614
0.954716
0.999749
1.03971
1.07575
1.10847
1.13791
1.16489
1.18952
1.21211
1.23316
1.25331
1.27199
1.2893
1.30615
1.32252
1.33855
1.35508
1.37486
1.3866
1.42081
-12.6355
-9.98007
-8.01034
-6.49997
-5.34192
-4.34474
-3.51911
-2.8755
-2.29467
-1.83332
-1.43691
-1.09526
-0.799456
-0.544789
-0.314236
-0.111161
0.0616012
0.217775
0.353408
0.473596
0.577572
0.677002
0.759356
0.837274
0.905708
0.966618
1.0232
1.07232
1.11769
1.15766
1.19356
1.22535
1.25351
1.27874
1.30128
1.32205
1.34117
1.35887
1.37555
1.39131
1.40649
1.4216
1.43638
1.45108
1.46547
1.47951
1.49457
1.51048
1.52547
1.55412
-8.01601
-6.08362
-4.6474
-3.54719
-2.81748
-2.16356
-1.68147
-1.25588
-0.880296
-0.598487
-0.320819
-0.105342
0.0949163
0.267113
0.416102
0.549649
0.663958
0.768359
0.857715
0.937437
1.00879
1.07257
1.12696
1.18188
1.22275
1.26534
1.30026
1.332
1.36099
1.38505
1.40917
1.42773
1.44606
1.46124
1.47485
1.48868
1.50106
1.51257
1.52242
1.53269
1.543
1.55328
1.56347
1.57378
1.58457
1.59596
1.60715
1.61842
1.62975
1.65114
-3.06398
-2.11177
-1.40635
-0.905568
-0.445064
-0.129295
0.101672
0.331246
0.483591
0.620183
0.767098
0.855696
0.971562
1.0495
1.12541
1.19375
1.24713
1.29866
1.34407