/*--------------------------------*- C++ -*----------------------------------*\
| =========                 |                                                 |
| \\      /  F ield         | OpenFOAM: The Open Source CFD Toolbox           |
|  \\    /   O peration     | Version:  2.3.1                                 |
|   \\  /    A nd           | Web:      www.OpenFOAM.org                      |
|    \\/     M anipulation  |                                                 |
\*---------------------------------------------------------------------------*/
FoamFile
{
    version     2.0;
    format      ascii;
    class       surfaceScalarField;
    location    "47";
    object      phi;
}
// * * * * * * * * * * * * * * * * * * * * * * * * * * * * * * * * * * * * * //

dimensions      [0 3 -1 0 0 0 0];

internalField   nonuniform List<scalar> 
9555
(
32.0607
-8.17738
9.45006
30.8299
-7.91406
9.14486
29.6383
-7.66134
8.85289
28.4867
-7.41757
8.56917
27.3733
-7.18242
8.29584
26.2963
-6.95355
8.03056
25.2543
-6.73256
7.77451
24.2459
-6.51709
7.52558
23.2694
-6.30928
7.2857
22.3238
-6.10697
7.05256
21.4079
-5.91247
6.8284
20.5216
-5.72404
6.61038
19.664
-5.54421
6.4018
18.8345
-5.37048
6.19997
18.0314
-5.20098
6.00404
17.2542
-5.03791
5.81512
16.5026
-4.8793
5.63093
15.7747
-4.72462
5.45249
15.07
-4.57586
5.28057
14.3874
-4.42949
5.11209
13.7262
-4.29043
4.95165
13.0861
-4.15293
4.79305
12.4654
-4.02271
4.64343
11.8643
-3.89374
4.49484
11.2822
-3.77212
4.35423
10.7185
-3.65341
4.21706
10.1723
-3.53812
4.08438
9.64436
-3.43112
3.95902
9.13194
-3.32177
3.83419
8.63635
-3.22281
3.7184
8.1558
-3.1208
3.60135
7.69057
-3.02962
3.49484
7.23861
-2.93318
3.38514
6.80186
-2.84947
3.28622
6.37888
-2.75976
3.18275
5.96809
-2.68262
3.09341
5.57017
-2.60069
2.99861
5.18209
-2.52599
2.91408
4.80735
-2.452
2.82675
4.44233
-2.38649
2.75151
4.08763
-2.31552
2.67022
3.74419
-2.26199
2.60543
3.40775
-2.19742
2.53387
3.07729
-2.15041
2.48087
2.75033
-2.09478
2.42174
2.42316
-2.05535
2.38252
2.09741
-2.0074
2.33315
1.76698
-1.97986
2.31028
1.44155
-1.94891
2.27434
-1.94199
2.2695
1.11404
32.0661
-6.91014
30.8413
-6.68926
29.6568
-6.47684
28.5113
-6.27208
27.4032
-6.07436
26.3308
-5.88108
25.2922
-5.69399
24.287
-5.5119
23.3139
-5.33613
22.3718
-5.16495
21.4602
-5.0008
20.5788
-4.84272
19.7256
-4.69094
18.899
-4.54389
18.0984
-4.40037
17.3225
-4.26203
16.5718
-4.12863
15.845
-3.99779
15.1409
-3.87176
14.4589
-3.74749
13.7985
-3.63003
13.1585
-3.51289
12.5392
-3.40351
11.9396
-3.29408
11.3595
-3.19199
10.7972
-3.09111
10.2539
-2.99485
9.72678
-2.90401
9.21614
-2.81113
8.72145
-2.72813
8.24182
-2.64117
7.77716
-2.56495
7.32743
-2.48346
6.88953
-2.41157
6.467
-2.33724
6.05395
-2.26957
5.65667
-2.20342
5.26844
-2.13776
4.89471
-2.07827
4.52835
-2.02014
4.17452
-1.96169
3.82796
-1.91543
3.48714
-1.85661
3.1535
-1.81676
2.82767
-1.76896
2.50068
-1.72835
2.18714
-1.69386
1.86891
-1.66162
1.56019
-1.64019
-1.62266
1.24086
32.0705
-5.64727
30.8493
-5.46809
29.6687
-5.29624
28.5272
-5.13056
27.4229
-4.97011
26.354
-4.81218
25.3193
-4.6593
24.3178
-4.5104
23.3478
-4.36609
22.4083
-4.22547
21.498
-4.09048
20.6152
-3.95996
19.7608
-3.83655
18.9338
-3.71689
18.1343
-3.60078
17.3597
-3.48744
16.6107
-3.37966
15.8851
-3.27217
15.1829
-3.16963
14.5025
-3.06706
13.8433
-2.97088
13.2052
-2.8747
12.5878
-2.78613
11.9898
-2.69611
11.4104
-2.61261
10.8498
-2.53053
10.306
-2.45102
9.78004
-2.37802
9.26977
-2.30085
8.77525
-2.23361
8.29713
-2.16306
7.83322
-2.10103
7.38558
-2.03582
6.94875
-1.97474
6.52975
-1.91825
6.11816
-1.85797
5.72276
-1.80803
5.33452
-1.74951
4.96171
-1.70547
4.59257
-1.651
4.23917
-1.60828
3.89038
-1.56664
3.55307
-1.5193
3.22189
-1.48559
2.89972
-1.44679
2.57999
-1.40862
2.27103
-1.3849
1.9604
-1.35098
1.64399
-1.32378
-1.31029
1.33163
32.0744
-4.38829
30.8563
-4.25
29.6785
-4.11844
28.5394
-3.99147
27.4367
-3.86746
26.3696
-3.74508
25.3362
-3.6259
24.3353
-3.50945
23.3661
-3.39691
22.4282
-3.28754
21.5201
-3.18243
20.6408
-3.08067
19.7906
-2.98629
18.9668
-2.89314
18.1706
-2.8046
17.3988
-2.71556
16.6507
-2.63164
15.9253
-2.54675
15.2226
-2.46689
14.5435
-2.38796
13.8847
-2.31212
13.2482
-2.23818
12.6317
-2.16969
12.0341
-2.09843
11.4555
-2.03407
10.894
-1.96902
10.3512
-1.90826
9.82506
-1.85184
9.31517
-1.79097
8.82103
-1.73946
8.34393
-1.68596
7.87789
-1.635
7.43015
-1.58807
6.99161
-1.5362
6.56893
-1.49556
6.15688
-1.44592
5.75724
-1.40838
5.37001
-1.36229
4.99456
-1.33002
4.62697
-1.28341
4.27506
-1.25637
3.9234
-1.21498
3.58845
-1.18434
3.25939
-1.15653
2.93393
-1.12133
2.62281
-1.0975
2.31065
-1.07275
2.00226
-1.04259
1.70174
-1.02326
-1.00967
1.40111
32.0773
-3.13225
30.8615
-3.0342
29.6856
-2.94251
28.5479
-2.85383
27.4464
-2.76592
26.3802
-2.67885
25.3476
-2.59336
24.3476
-2.5094
23.3792
-2.4285
22.4412
-2.34963
21.5336
-2.27474
20.6549
-2.20201
19.8039
-2.13531
18.9793
-2.06856
18.1815
-2.00676
17.4084
-1.94249
16.6598
-1.883
15.9351
-1.82203
15.2336
-1.76547
14.5555
-1.7098
13.8972
-1.65386
13.26
-1.60094
12.6421
-1.55177
12.0433
-1.49963
11.464
-1.4548
10.9022
-1.4072
10.3599
-1.36597
9.83214
-1.32407
9.32311
-1.28194
8.82815
-1.2445
8.35136
-1.20917
7.88543
-1.16907
7.4361
-1.13874
6.99962
-1.09973
6.57638
-1.07232
6.16799
-1.03754
5.76699
-1.00737
5.3852
-0.980497
5.00683
-0.951655
4.64423
-0.920805
4.29118
-0.90332
3.94455
-0.86835
3.61405
-0.853846
3.28375
-0.826229
2.96869
-0.806271
2.65709
-0.785901
2.3541
-0.769756
2.05764
-0.746123
1.7709
-0.736524
-0.713308
1.47454
32.0792
-1.87816
30.8649
-1.81986
29.6897
-1.76734
28.5524
-1.7165
27.4511
-1.66466
26.3849
-1.61264
25.3525
-1.56094
24.3525
-1.50939
23.3837
-1.45967
22.4449
-1.41086
21.5361
-1.36597
20.6564
-1.32225
19.804
-1.28295
18.9786
-1.24317
18.1797
-1.20786
17.4065
-1.16929
16.6584
-1.13482
15.9333
-1.09703
15.2312
-1.06336
14.5497
-1.02826
13.8919
-0.996074
13.2539
-0.962984
12.6366
-0.934445
12.039
-0.902023
11.4608
-0.876622
10.9004
-0.846757
10.3579
-0.823511
9.83024
-0.796379
9.32247
-0.77417
8.82698
-0.749013
8.34867
-0.730856
7.88425
-0.704652
7.43466
-0.689145
6.99875
-0.663815
6.57612
-0.649692
6.16693
-0.628347
5.76774
-0.608185
5.38326
-0.596021
5.00786
-0.576254
4.64418
-0.557118
4.291
-0.550147
3.94722
-0.524564
3.61425
-0.520877
3.28367
-0.495654
2.97245
-0.495047
2.65697
-0.470418
2.35802
-0.470807
2.06102
-0.449129
1.76422
-0.43972
-0.432359
1.48327
32.0803
-0.625141
30.8667
-0.606285
29.6913
-0.591933
28.5532
-0.578414
27.4513
-0.562704
26.3844
-0.545725
25.3514
-0.527942
24.351
-0.509062
23.3814
-0.490058
22.4433
-0.472693
21.5346
-0.457253
20.6548
-0.442523
19.8027
-0.430778
18.9775
-0.418022
18.1777
-0.408077
17.404
-0.395574
16.6544
-0.385226
15.9299
-0.372475
15.228
-0.361456
14.5482
-0.348505
13.8897
-0.33756
13.2522
-0.325493
12.6338
-0.316088
12.0355
-0.303689
11.4539
-0.295056
10.8936
-0.286413
10.3505
-0.280365
9.82253
-0.268454
9.31201
-0.26365
8.81918
-0.256192
8.33845
-0.250122
7.8756
-0.241804
7.42598
-0.23952
6.98975
-0.227583
6.56579
-0.225739
6.15696
-0.219517
5.75859
-0.209812
5.37207
-0.209503
4.99812
-0.202298
4.63557
-0.194568
4.28166
-0.196246
3.93936
-0.18226
3.60557
-0.187089
3.28599
-0.176074
2.96413
-0.173187
2.66434
-0.170629
2.35968
-0.166139
2.07253
-0.161983
1.7952
-0.162387
-0.153836
1.51667
32.0806
0.627583
30.8674
0.606965
29.6914
0.583992
28.5523
0.560737
27.4491
0.540488
26.3807
0.52263
25.3457
0.507057
24.3431
0.493533
23.3715
0.481557
22.4314
0.467483
21.5204
0.4537
20.6397
0.438171
19.7862
0.422713
18.9615
0.406705
18.1614
0.392036
17.3885
0.377265
16.6382
0.365099
15.9137
0.352047
15.21
0.342197
14.5309
0.330599
13.8711
0.322255
13.2348
0.31082
12.6161
0.302662
12.0198
0.292544
11.4398
0.284944
10.8811
0.272268
10.3366
0.264222
9.81205
0.256047
9.30041
0.247994
8.80843
0.235786
8.32733
0.230971
7.86612
0.219407
7.41447
0.212133
6.98111
0.205775
6.55698
0.198396
6.14819
0.189266
5.75089
0.187486
5.36584
0.175557
4.99018
0.17336
4.63169
0.163922
4.27344
0.161999
3.93698
0.154203
3.59895
0.150944
3.28272
0.140149
2.96113
0.148406
2.66518
0.125318
2.36069
0.138354
2.07931
0.119394
1.79912
0.117806
0.12299
1.52229
32.0803
1.88061
30.867
1.82029
29.691
1.75994
28.5516
1.70014
27.4484
1.64372
26.3804
1.59064
25.3463
1.54113
24.3448
1.49507
23.3751
1.45128
22.4366
1.40592
21.528
1.36237
20.6487
1.31739
19.7962
1.27522
18.971
1.23194
18.1709
1.19215
17.3967
1.1514
16.6463
1.11552
15.9211
1.07726
15.2182
1.04511
14.5387
1.01005
13.8798
0.981215
13.2422
0.948406
12.6232
0.92163
12.0259
0.88987
11.4465
0.864362
10.8843
0.834425
10.3401
0.808445
9.8134
0.78275
9.30408
0.757318
8.80998
0.729888
8.33003
0.710918
7.86676
0.682675
7.41392
0.66498
6.98064
0.639053
6.55628
0.622759
6.14495
0.600595
5.75079
0.58164
5.36151
0.564837
4.98937
0.545505
4.62497
0.528326
4.27308
0.513883
3.93259
0.494697
3.59846
0.48507
3.27633
0.462281
2.9664
0.458333
2.65652
0.435199
2.3629
0.43198
2.07329
0.409002
1.78637
0.404725
0.385068
1.52429
32.0793
3.13463
30.8652
3.03443
29.6891
2.936
28.5495
2.83979
27.446
2.74723
26.3777
2.65891
25.3434
2.57544
24.3418
2.49667
23.3721
2.42095
22.4331
2.34495
21.5239
2.27156
20.6437
2.19756
19.7915
2.12744
18.9654
2.0581
18.1666
1.99095
17.3923
1.92563
16.6433
1.86454
15.918
1.80258
15.2154
1.7477
14.5342
1.69122
13.8752
1.64027
13.2364
1.58716
12.619
1.539
12.0209
1.48798
11.4415
1.44381
10.8799
1.39605
10.3376
1.35074
9.81068
1.30963
9.30182
1.26619
8.8079
1.22381
8.32952
1.1893
7.86607
1.14612
7.41718
1.11387
6.98229
1.07394
6.55977
1.04528
6.14938
1.01099
5.75475
0.976273
5.36634
0.953241
4.9956
0.916244
4.62849
0.895436
4.28099
0.861387
3.93325
0.842439
3.60495
0.813367
3.27462
0.792613
2.96687
0.766082
2.64944
0.752625
2.35751
0.723915
2.05907
0.707437
1.76966
0.694141
0.664312
1.49041
32.0776
4.39039
30.8617
4.25028
29.6845
4.11324
28.5442
3.98009
27.4399
3.85145
26.3712
3.72769
25.3363
3.61026
24.3346
3.49843
23.3651
3.39042
22.4267
3.28331
21.5186
3.17974
20.6392
3.07692
19.7876
2.979
18.9628
2.88298
18.1636
2.79011
17.3897
2.69955
16.6401
2.61409
15.9144
2.52827
15.213
2.44913
14.5323
2.37198
13.875
2.29751
13.2365
2.22565
12.6188
2.15674
12.0201
2.08665
11.4398
2.02412
10.8791
1.9568
10.3339
1.8959
9.80899
1.83453
9.29781
1.77737
8.80333
1.71829
8.32446
1.66817
7.86006
1.61052
7.41045
1.56347
6.9743
1.5101
6.55226
1.46732
6.14263
1.42061
5.74536
1.37354
5.36114
1.33746
4.98572
1.29167
4.62184
1.25931
4.26988
1.21335
3.9241
1.18821
3.59398
1.14349
3.26555
1.12105
2.9528
1.07883
2.64171
1.06372
2.34383
1.02179
2.04832
1.00295
1.7635
0.978962
0.9538
1.47401
32.0749
5.64887
30.8567
5.46842
29.6773
5.29264
28.5356
5.12177
27.4301
4.95699
26.3602
4.79764
25.3242
4.64624
24.3215
4.5011
23.3513
4.36062
22.4124
4.22226
21.5039
4.08825
20.624
3.95681
19.7723
3.8307
18.9485
3.70677
18.1501
3.58845
17.3778
3.47189
16.6292
3.36265
15.9028
3.25474
15.2004
3.15145
14.5189
3.05354
13.8607
2.95568
13.2222
2.86416
12.6044
2.77455
12.0061
2.68496
11.4265
2.60369
10.865
2.5183
10.3202
2.44071
9.79467
2.36006
9.28384
2.2882
8.78992
2.2122
8.31171
2.14638
7.84773
2.0745
7.39801
2.0132
6.96071
1.94739
6.53857
1.88945
6.12935
1.82983
5.72752
1.77537
5.34487
1.72011
4.96964
1.6669
4.60555
1.62341
4.25115
1.56775
3.90704
1.53233
3.57132
1.4792
3.24339
1.44898
2.92164
1.40058
2.61145
1.37391
2.30099
1.33225
1.9997
1.30423
1.69673
1.28194
1.25544
1.39509
32.071
6.9112
30.8498
6.68961
29.6678
6.47469
28.5236
6.26589
27.4161
6.06449
26.3443
5.86945
25.3074
5.68314
24.3044
5.50413
23.3337
5.33133
22.3934
5.16255
21.4825
4.99913
20.5994
4.83991
19.7442
4.68591
18.9166
4.53437
18.1152
4.38986
17.3393
4.2478
16.5886
4.1133
15.8614
3.98194
15.1572
3.85563
14.4753
3.73544
13.8153
3.61568
13.176
3.50347
12.5582
3.39234
11.9586
3.28465
11.3797
3.18253
10.8178
3.08024
10.274
2.98453
9.74721
2.8868
9.23654
2.79887
8.742
2.70674
8.26324
2.62514
7.79917
2.53858
7.35019
2.46217
6.91349
2.38409
6.49306
2.30989
6.08409
2.23881
5.68528
2.17418
5.30135
2.10404
4.9255
2.04275
4.5624
1.98651
4.20764
1.92251
3.86444
1.87552
3.52697
1.81668
3.20218
1.77377
2.87746
1.7253
2.56834
1.68302
2.25608
1.64451
1.95352
1.60679
1.64857
1.5869
1.56771
1.33629
32.0665
8.17807
30.8415
7.91459
29.6557
7.6605
28.5079
7.41371
27.3967
7.17563
26.3214
6.94476
25.2813
6.72328
24.2754
6.51002
23.3022
6.30451
22.3601
6.10465
21.4481
5.91115
20.5656
5.7224
19.7107
5.54077
18.8825
5.36258
18.0801
5.19227
17.3029
5.02498
16.5506
4.86563
15.8231
4.70942
15.119
4.55981
14.4371
4.41732
13.7766
4.27616
13.1359
4.14413
12.5162
4.01206
11.9143
3.88661
11.3324
3.76438
10.7687
3.644
10.2222
3.531
9.69317
3.41581
9.18101
3.31103
8.68489
3.20287
8.20489
3.10514
7.73869
3.00478
7.28964
2.91122
6.85105
2.82268
6.42815
2.73279
6.01783
2.64912
5.61793
2.57409
5.23173
2.49024
4.8549
2.41958
4.4914
2.35001
4.13529
2.27861
3.7924
2.21842
3.45174
2.15734
3.12718
2.09833
2.80072
2.05176
2.4864
1.99734
2.16999
1.96092
1.85437
1.92241
1.54847
1.8928
1.88687
1.22931
32.061
9.45038
30.8306
9.14497
29.639
8.85217
28.4859
8.56679
27.3696
8.29188
26.289
8.02543
25.2434
7.76882
24.2327
7.5208
23.2554
7.28182
22.31
7.04996
21.3953
6.82589
20.5105
6.60725
19.6539
6.39727
18.8241
6.19242
18.0203
5.99611
17.2411
5.80409
16.4867
5.62003
15.7558
5.44034
15.0476
5.26801
14.3633
5.10169
13.6997
4.93967
13.0587
4.78514
12.4381
4.63266
11.837
4.4877
11.2558
4.34561
10.692
4.20784
10.1467
4.07623
9.61738
3.94516
9.10515
3.82327
8.60881
3.6992
8.12854
3.58542
7.66223
3.47108
7.21016
3.3633
6.77207
3.26078
6.3466
3.15826
5.93645
3.05927
5.5394
2.97114
5.15412
2.87552
4.77868
2.79502
4.41609
2.7126
4.05878
2.63592
3.71356
2.56364
3.37321
2.49769
3.04412
2.42741
2.72082
2.37505
2.40204
2.31613
2.09033
2.27263
1.77247
2.24027
1.45207
2.2132
2.21519
1.12376
-0.0647093
-9.58118
9.64589
-0.134092
-9.25477
9.32416
-0.194764
-8.95774
9.01841
-0.25766
-8.65855
8.72145
-0.316511
-8.37515
8.434
-0.373176
-8.10091
8.15758
-0.428437
-7.83287
7.88813
-0.480391
-7.57644
7.62839
-0.529903
-7.32853
7.37804
-0.578807
-7.08762
7.13653
-0.625463
-6.85574
6.9024
-0.669958
-6.63059
6.67508
-0.712738
-6.41369
6.45647
-0.753814
-6.20333
6.24441
-0.792439
-6.00062
6.03925
-0.828934
-5.80447
5.84096
-0.862876
-5.61609
5.65003
-0.893933
-5.4334
5.46445
-0.923013
-5.25639
5.28547
-0.950256
-5.08529
5.11253
-0.975604
-4.91998
4.94532
-0.999201
-4.75989
4.78349
-1.02094
-4.60563
4.62737
-1.0414
-4.45571
4.47617
-1.06114
-4.31081
4.33056
-1.07907
-4.17247
4.1904
-1.09566
-4.0402
4.05678
-1.11224
-3.91177
3.92836
-1.12957
-3.78539
3.80272
-1.14667
-3.66244
3.67954
-1.16361
-3.5413
3.55824
-1.17874
-3.42267
3.43779
-1.19158
-3.3049
3.31775
-1.19623
-3.19376
3.1984
-1.18953
-3.08745
3.08075
-1.17635
-2.9905
2.97733
-1.15833
-2.90069
2.88267
-1.12738
-2.82717
2.79621
-1.08866
-2.75783
2.71912
-1.03852
-2.70984
2.65969
-0.991579
-2.6725
2.62555
-0.962454
-2.65341
2.62428
-0.95515
-2.63447
2.62716
-0.974315
-2.62929
2.64846
-1.00363
-2.62978
2.65909
-1.04928
-2.63731
2.68297
-1.13733
-2.64023
2.72827
-1.25786
-2.64483
2.76537
-1.41751
-2.64113
2.80077
-2.61955
2.77188
-1.56984
-0.0681471
-9.51304
-0.12734
-9.19558
-0.188886
-8.89619
-0.243111
-8.60433
-0.296852
-8.3214
-0.348388
-8.04937
-0.395556
-7.7857
-0.441471
-7.53052
-0.485343
-7.28465
-0.526955
-7.04601
-0.566356
-6.81634
-0.603512
-6.59343
-0.638535
-6.37867
-0.671424
-6.17044
-0.702523
-5.96952
-0.731833
-5.77516
-0.759423
-5.5885
-0.78506
-5.40776
-0.808502
-5.23295
-0.830487
-5.0633
-0.851321
-4.89914
-0.870822
-4.74039
-0.889478
-4.58697
-0.90759
-4.4376
-0.923486
-4.29492
-0.937734
-4.15822
-0.951536
-4.02639
-0.965858
-3.89745
-0.981301
-3.76995
-0.995431
-3.64831
-1.00758
-3.52915
-1.01558
-3.41466
-1.01653
-3.30396
-1.0071
-3.20318
-0.988592
-3.10597
-0.962453
-3.01664
-0.929681
-2.93346
-0.891962
-2.86489
-0.859171
-2.79062
-0.829782
-2.73923
-0.811799
-2.69048
-0.812821
-2.65239
-0.825064
-2.62223
-0.852965
-2.60139
-0.899296
-2.58345
-0.962777
-2.57383
-1.05358
-2.54942
-1.15031
-2.5481
-1.25557
-2.53587
-2.51897
-1.35615
-0.0545758
-9.45846
-0.106811
-9.14335
-0.155939
-8.84706
-0.204717
-8.55555
-0.250561
-8.27556
-0.2943
-8.00564
-0.336618
-7.74338
-0.376445
-7.4907
-0.414353
-7.24675
-0.450492
-7.00987
-0.484758
-6.78208
-0.517276
-6.56091
-0.548011
-6.34793
-0.576882
-6.14157
-0.603898
-5.94251
-0.629021
-5.75003
-0.651755
-5.56576
-0.672767
-5.38675
-0.692413
-5.2133
-0.710867
-5.04485
-0.728129
-4.88188
-0.744464
-4.72406
-0.760077
-4.57136
-0.774915
-4.42276
-0.787191
-4.28264
-0.799384
-4.14603
-0.810129
-4.01565
-0.819666
-3.88791
-0.827791
-3.76182
-0.832621
-3.64348
-0.833647
-3.52813
-0.830552
-3.41776
-0.822255
-3.31225
-0.809798
-3.21564
-0.796892
-3.11887
-0.78366
-3.02987
-0.772744
-2.94438
-0.764005
-2.87363
-0.754835
-2.79979
-0.74546
-2.7486
-0.742243
-2.6937
-0.748059
-2.64657
-0.758301
-2.61198
-0.778606
-2.58109
-0.812081
-2.54997
-0.855934
-2.52997
-0.911445
-2.49391
-0.979575
-2.47997
-1.07175
-2.4437
-2.43184
-1.15888
-0.0530032
-9.40546
-0.0979897
-9.09836
-0.144718
-8.80033
-0.184559
-8.51571
-0.223941
-8.23618
-0.260969
-7.96861
-0.294941
-7.70941
-0.327437
-7.4582
-0.3578
-7.21638
-0.386176
-6.9815
-0.41279
-6.75546
-0.437453
-6.53625
-0.460486
-6.3249
-0.48201
-6.12005
-0.502243
-5.92227
-0.521659
-5.73062
-0.540604
-5.54682
-0.558392
-5.36896
-0.574567
-5.19713
-0.588999
-5.03041
-0.602069
-4.86881
-0.613952
-4.71217
-0.624775
-4.56054
-0.63331
-4.41422
-0.639723
-4.27623
-0.646178
-4.13957
-0.652245
-4.00958
-0.657633
-3.88253
-0.661375
-3.75808
-0.663287
-3.64157
-0.663519
-3.5279
-0.661281
-3.41999
-0.65647
-3.31707
-0.650737
-3.22137
-0.645426
-3.12418
-0.635752
-3.03954
-0.623536
-2.9566
-0.610497
-2.88667
-0.594904
-2.81538
-0.586308
-2.7572
-0.58485
-2.69515
-0.591137
-2.64028
-0.606511
-2.59661
-0.634326
-2.55327
-0.676655
-2.50765
-0.728835
-2.47779
-0.784075
-2.43867
-0.840958
-2.42309
-0.894269
-2.39038
-2.37979
-0.94632
-0.0380435
-9.36742
-0.0756953
-9.06071
-0.109884
-8.76615
-0.14435
-8.48124
-0.175324
-8.2052
-0.204749
-7.93918
-0.233465
-7.6807
-0.259528
-7.43214
-0.284418
-7.19149
-0.307804
-6.95811
-0.329534
-6.73373
-0.350094
-6.51569
-0.369255
-6.30574
-0.386944
-6.10236
-0.402893
-5.90632
-0.4169
-5.71661
-0.42984
-5.53388
-0.442275
-5.35652
-0.454305
-5.18509
-0.465173
-5.01955
-0.474953
-4.85903
-0.483549
-4.70358
-0.490591
-4.5535
-0.4952
-4.40961
-0.499873
-4.27156
-0.503579
-4.13587
-0.50804
-4.00512
-0.512066
-3.8785
-0.512398
-3.75775
-0.511481
-3.64248
-0.509313
-3.53006
-0.504671
-3.42464
-0.499004
-3.32273
-0.492851
-3.22753
-0.486823
-3.13021
-0.477579
-3.04879
-0.470018
-2.96416
-0.468366
-2.88832
-0.469124
-2.81463
-0.478993
-2.74733
-0.491033
-2.68311
-0.503681
-2.62763
-0.522418
-2.57787
-0.543373
-2.53232
-0.567316
-2.4837
-0.589877
-2.45523
-0.620663
-2.40788
-0.660232
-2.38352
-0.707764
-2.34285
-2.33008
-0.757473
-0.0357028
-9.33171
-0.0660026
-9.03041
-0.096464
-8.73568
-0.12276
-8.45494
-0.147648
-8.18032
-0.170893
-7.91594
-0.190964
-7.66062
-0.210488
-7.41261
-0.227994
-7.17399
-0.243947
-6.94216
-0.258696
-6.71898
-0.271939
-6.50245
-0.283889
-6.29379
-0.29471
-6.09154
-0.304663
-5.89637
-0.314312
-5.70696
-0.323732
-5.52446
-0.3322
-5.34806
-0.33927
-5.17803
-0.345753
-5.01306
-0.35118
-4.8536
-0.355281
-4.69948
-0.357726
-4.55105
-0.359773
-4.40757
-0.363923
-4.2674
-0.367006
-4.13278
-0.368888
-4.00324
-0.369639
-3.87775
-0.367532
-3.75986
-0.364916
-3.6451
-0.361955
-3.53303
-0.358043
-3.42855
-0.355303
-3.32547
-0.352168
-3.23066
-0.348913
-3.13347
-0.346022
-3.05168
-0.345989
-2.96419
-0.347064
-2.88724
-0.346007
-2.81568
-0.347985
-2.74535
-0.349684
-2.68141
-0.352067
-2.62525
-0.364304
-2.56564
-0.381207
-2.51542
-0.402275
-2.46263
-0.432317
-2.42519
-0.468713
-2.37149
-0.50061
-2.35163
-0.5288
-2.31466
-2.30845
-0.550426
-0.0216493
-9.31006
-0.0435643
-9.00849
-0.0619435
-8.7173
-0.0814789
-8.43541
-0.0982091
-8.16359
-0.113949
-7.9002
-0.129066
-7.64551
-0.142384
-7.3993
-0.15475
-7.16162
-0.166185
-6.93072
-0.176494
-6.70868
-0.18607
-6.49287
-0.194733
-6.28512
-0.202482
-6.08379
-0.209141
-5.88971
-0.214461
-5.70164
-0.218631
-5.52029
-0.222543
-5.34414
-0.226243
-5.17432
-0.229574
-5.00973
-0.232278
-4.8509
-0.234383
-4.69737
-0.236031
-4.5494
-0.237929
-4.40567
-0.240066
-4.26527
-0.240445
-4.13241
-0.238464
-4.00522
-0.23553
-3.88068
-0.232943
-3.76244
-0.229983
-3.64806
-0.228223
-3.53479
-0.225171
-3.4316
-0.222589
-3.32805
-0.218885
-3.23437
-0.213941
-3.13841
-0.213145
-3.05247
-0.211684
-2.96565
-0.20967
-2.88926
-0.209249
-2.8161
-0.213937
-2.74066
-0.224852
-2.6705
-0.239543
-2.61056
-0.255456
-2.54972
-0.269167
-2.50171
-0.284564
-2.44724
-0.299913
-2.40984
-0.308773
-2.36263
-0.324933
-2.33547
-0.342373
-2.29722
-2.29067
-0.360157
-0.0182595
-9.2918
-0.0335827
-8.99317
-0.0478702
-8.70302
-0.0594141
-8.42386
-0.069574
-8.15343
-0.0787594
-7.89101
-0.0858089
-7.63846
-0.0923775
-7.39273
-0.097627
-7.15637
-0.101904
-6.92644
-0.105465
-6.70512
-0.108062
-6.49028
-0.11004
-6.28315
-0.111522
-6.08231
-0.112778
-5.88846
-0.114078
-5.70034
-0.115252
-5.51911
-0.115927
-5.34347
-0.115879
-5.17437
-0.115495
-5.01012
-0.114583
-4.85181
-0.113431
-4.69852
-0.112723
-4.55011
-0.111448
-4.40694
-0.107352
-4.26936
-0.10442
-4.13534
-0.101808
-4.00783
-0.0969269
-3.88556
-0.0948597
-3.76451
-0.0919129
-3.65101
-0.0881667
-3.53853
-0.0838149
-3.43595
-0.0802255
-3.33164
-0.0780312
-3.23656
-0.0763348
-3.14011
-0.0769709
-3.05184
-0.0753353
-2.96729
-0.0785495
-2.88604
-0.0855101
-2.80914
-0.0894186
-2.73675
-0.092378
-2.66754
-0.0950561
-2.60788
-0.0943663
-2.55041
-0.0977977
-2.49827
-0.106183
-2.43885
-0.11636
-2.39966
-0.130456
-2.34853
-0.143938
-2.32198
-0.150614
-2.29055
-2.27902
-0.162266
-0.0042109
-9.28759
-0.00978404
-8.9876
-0.011999
-8.7008
-0.0158067
-8.42006
-0.0180358
-8.1512
-0.0194736
-7.88957
-0.0211753
-7.63676
-0.0216115
-7.39229
-0.0220218
-7.15596
-0.021958
-6.92651
-0.0213318
-6.70574
-0.0205596
-6.49105
-0.0193368
-6.28437
-0.0177276
-6.08391
-0.0155179
-5.89066
-0.012552
-5.70331
-0.00899142
-5.52267
-0.00545917
-5.347
-0.00206375
-5.17777
0.00145569
-5.01364
0.00475592
-4.85511
0.0084012
-4.70217
0.0117334
-4.55344
0.0152199
-4.41043
0.0208868
-4.27503
0.0260766
-4.14053
0.0298378
-4.0116
0.0351431
-3.89087
0.0399782
-3.76935
0.0442062
-3.65524
0.0487034
-3.54303
0.0511628
-3.43841
0.0530258
-3.33351
0.0535995
-3.23713
0.0552459
-3.14175
0.057565
-3.05416
0.0616185
-2.97134
0.062039
-2.88646
0.0598508
-2.80696
0.0606857
-2.73759
0.0609314
-2.66779
0.0568255
-2.60378
0.0491191
-2.54271
0.037095
-2.48625
0.0286577
-2.43042
0.0258023
-2.39681
0.0230309
-2.34576
0.0199518
-2.3189
0.0224747
-2.29307
-2.2747
0.0181529
8.73445e-05
-9.28768
0.00334279
-8.99085
0.00433921
-8.7018
0.0100853
-8.4258
0.0139413
-8.15505
0.0194824
-7.89511
0.0259105
-7.64319
0.0320111
-7.39839
0.038922
-7.16287
0.0461029
-6.93369
0.0533809
-6.71302
0.0610831
-6.49875
0.0688739
-6.29216
0.0767303
-6.09177
0.0844581
-5.89839
0.0917449
-5.71059
0.09882
-5.52975
0.106053
-5.35423
0.113621
-5.18534
0.121283
-5.0213
0.12905
-4.86288
0.136857
-4.70998
0.145845
-4.56243
0.153933
-4.41852
0.15995
-4.28105
0.167821
-4.1484
0.174969
-4.01874
0.180607
-3.89651
0.185165
-3.7739
0.188467
-3.65854
0.192991
-3.54755
0.19648
-3.4419
0.200988
-3.33801
0.205352
-3.2415
0.210087
-3.14649
0.212009
-3.05608
0.211792
-2.97112
0.211925
-2.8866
0.210312
-2.80534
0.208693
-2.73597
0.205384
-2.66448
0.203755
-2.60215
0.202866
-2.54182
0.202959
-2.48634
0.203615
-2.43107
0.20228
-2.39547
0.198472
-2.34195
0.199675
-2.32011
0.20229
-2.29568
-2.27612
0.203714
0.0146569
-9.30234
0.0276611
-9.00386
0.0425266
-8.71666
0.0549172
-8.43819
0.0690188
-8.16916
0.0813496
-7.90745
0.0935216
-7.65536
0.10594
-7.41081
0.117664
-7.17459
0.129226
-6.94525
0.140867
-6.72466
0.152073
-6.50996
0.163356
-6.30344
0.174551
-6.10297
0.185791
-5.90963
0.197374
-5.72218
0.209078
-5.54145
0.220509
-5.36567
0.231667
-5.19649
0.24237
-5.032
0.253236
-4.87374
0.26322
-4.71996
0.273439
-4.57265
0.284533
-4.42961
0.292442
-4.28896
0.301414
-4.15737
0.309768
-4.0271
0.315354
-3.90209
0.323219
-3.78177
0.331184
-3.6665
0.339715
-3.55608
0.345901
-3.44809
0.351693
-3.34381
0.356002
-3.24581
0.360608
-3.15109
0.361598
-3.05707
0.359475
-2.969
0.362166
-2.88929
0.364103
-2.80728
0.366686
-2.73855
0.368085
-2.66588
0.3691
-2.60316
0.367894
-2.54061
0.364959
-2.48341
0.359198
-2.42531
0.355704
-2.39198
0.352938
-2.33918
0.357516
-2.32469
0.362587
-2.30075
-2.28869
0.37516
0.0203832
-9.32272
0.0418316
-9.0253
0.0614146
-8.73625
0.081976
-8.45875
0.102124
-8.1893
0.121972
-7.92729
0.141864
-7.67525
0.16096
-7.42991
0.180403
-7.19404
0.199359
-6.96421
0.217778
-6.74308
0.23618
-6.52836
0.254
-6.32126
0.271344
-6.12031
0.288108
-5.9264
0.303881
-5.73795
0.319027
-5.5566
0.333673
-5.38031
0.348434
-5.21126
0.362556
-5.04612
0.376569
-4.88776
0.390275
-4.73367
0.401885
-4.58426
0.414768
-4.44249
0.42788
-4.30207
0.438573
-4.16806
0.449692
-4.03822
0.459495
-3.9119
0.471556
-3.79383
0.481487
-3.67643
0.489634
-3.56423
0.496123
-3.45458
0.502914
-3.3506
0.509237
-3.25213
0.515724
-3.15758
0.524011
-3.06536
0.52817
-2.97316
0.533727
-2.89485
0.536447
-2.81
0.536783
-2.73889
0.534666
-2.66376
0.531894
-2.60039
0.526666
-2.53538
0.526667
-2.48341
0.528107
-2.42675
0.527958
-2.39183
0.530799
-2.34203
0.537267
-2.33115
0.537412
-2.3009
-2.30257
0.551289
0.0346627
-9.35738
0.0667116
-9.05735
0.0992471
-8.76878
0.127876
-8.48738
0.155603
-8.21703
0.182334
-7.95402
0.207904
-7.70082
0.233306
-7.45531
0.257771
-7.2185
0.281796
-6.98823
0.305228
-6.76651
0.327543
-6.55067
0.349452
-6.34317
0.370564
-6.14142
0.391186
-5.94702
0.411515
-5.75828
0.431252
-5.57634
0.450299
-5.39936
0.468039
-5.229
0.485181
-5.06327
0.500966
-4.90354
0.517055
-4.74976
0.531687
-4.59889
0.544731
-4.45554
0.559676
-4.31701
0.572757
-4.18115
0.588145
-4.0536
0.602601
-3.92635
0.615684
-3.80691
0.627582
-3.68833
0.637809
-3.57446
0.649362
-3.46613
0.660771
-3.36201
0.670899
-3.26226
0.676434
-3.16312
0.684537
-3.07346
0.690036
-2.97866
0.69399
-2.8988
0.697432
-2.81344
0.701417
-2.74287
0.704305
-2.66665
0.707776
-2.60386
0.706218
-2.53382
0.709367
-2.48656
0.707984
-2.42537
0.704277
-2.38813
0.701892
-2.33964
0.694098
-2.32336
0.689343
-2.29614
-2.311
0.697771
0.0406633
-9.39805
0.0793849
-9.09607
0.116995
-8.80639
0.153832
-8.52422
0.188977
-8.25218
0.223461
-7.98851
0.256469
-7.73383
0.287836
-7.48668
0.318314
-7.24898
0.348164
-7.01808
0.377798
-6.79615
0.406988
-6.57986
0.43602
-6.3722
0.464063
-6.16947
0.491204
-5.97416
0.517665
-5.78474
0.542022
-5.60069
0.566225
-5.42356
0.58894
-5.25171
0.610818
-5.08514
0.631996
-4.92472
0.651204
-4.76896
0.671872
-4.61956
0.689321
-4.47299
0.707098
-4.33479
0.723203
-4.19725
0.738626
-4.06903
0.754626
-3.94235
0.767281
-3.81957
0.780947
-3.702
0.794058
-3.58757
0.808199
-3.48027
0.81973
-3.37354
0.830605
-3.27313
0.838163
-3.17068
0.846658
-3.08195
0.855873
-2.98787
0.863159
-2.90609
0.870235
-2.82052
0.875505
-2.74814
0.877674
-2.66882
0.878376
-2.60456
0.875665
-2.53111
0.869758
-2.48065
0.863759
-2.41937
0.857985
-2.38235
0.856128
-2.33778
0.851515
-2.31875
0.854297
-2.29893
-2.31282
0.856121
0.0520092
0.100793
0.14729
0.192243
0.235904
0.277952
0.318634
0.357539
0.394255
0.428738
0.460994
0.491508
0.521103
0.551605
0.581486
0.611863
0.642095
0.671026
0.69989
0.726836
0.753766
0.777849
0.801714
0.82357
0.843005
0.86281
0.878164
0.894832
0.90945
0.925854
0.939637
0.95421
0.965815
0.978906
0.990982
1.00244
1.01318
1.02117
1.0274
1.03077
1.03217
1.03303
1.03578
1.036
1.03838
1.03854
1.03391
1.02544
1.00085
0.957533
1.16414
2.65777
-1.05003
1.29983
2.66508
1.4268
2.6384
1.55907
2.596
1.69603
2.54601
1.84033
2.51479
1.99847
2.49033
2.17601
2.44962
2.37101
2.42929
2.57893
2.41763
2.79962
2.439
3.03058
2.48816
3.27573
2.55106
3.53868
2.61972
3.81146
2.70454
4.08718
2.80504
4.36855
2.91703
4.6555
3.0308
4.94757
3.14573
5.24442
3.26138
5.54659
3.37737
5.85628
3.49303
6.17509
3.60955
6.5043
3.72757
6.84601
3.84869
7.20162
3.97495
7.56987
4.10792
7.95071
4.24652
8.34431
4.3899
8.75126
4.53837
9.17157
4.69222
9.60561
4.85142
10.0537
5.01639
10.5159
5.18778
10.9933
5.3636
11.4868
5.54572
11.9969
5.73433
12.5238
5.92957
13.0684
6.13051
13.6317
6.33902
14.2134
6.55486
14.8145
6.77695
15.4356
7.00728
16.0782
7.24556
16.7432
7.49259
17.4298
7.7474
18.1415
8.00969
18.8764
8.28354
19.6342
8.56636
8.85872
20.4214
1.22616
2.55621
-1.1246
1.34264
2.54859
1.45807
2.52297
1.58562
2.46845
1.71323
2.4184
1.85609
2.37192
2.0152
2.33122
2.18723
2.27759
2.3748
2.24172
2.57214
2.22028
2.78893
2.22222
3.02784
2.24925
3.28168
2.29722
3.55163
2.34977
3.83345
2.42273
4.12132
2.51717
4.41173
2.62661
4.70296
2.73956
4.99535
2.85335
5.2895
2.96723
5.5895
3.07737
5.89728
3.18525
6.21392
3.29292
6.54044
3.40105
6.8783
3.51082
7.231
3.62225
7.5991
3.73982
7.98044
3.86518
8.37388
3.99646
8.78017
4.13208
9.20017
4.27223
9.63384
4.41774
10.0821
4.56812
10.5452
4.72473
11.0235
4.88523
11.5172
5.05208
12.0269
5.22464
12.5538
5.40266
13.0978
5.58652
13.6601
5.77665
14.2407
5.97434
14.8401
6.17748
15.4606
6.3868
16.101
6.60517
16.7639
6.82968
17.4479
7.06342
18.1542
7.30332
18.8848
7.55301
19.6398
7.81132
8.07528
20.4232
1.29993
2.46691
-1.21064
1.39765
2.45088
1.50564
2.41497
1.61766
2.35642
1.73464
2.30143
1.86347
2.2431
2.00974
2.18494
2.17053
2.1168
2.34959
2.06266
2.5465
2.02338
2.764
2.00471
3.00247
2.01079
3.26051
2.03918
3.53419
2.07609
3.81946
2.13745
4.11397
2.22267
4.4159
2.32468
4.72042
2.43504
5.02548
2.54829
5.33068
2.66203
5.63471
2.77334
5.93995
2.88001
6.25285
2.98002
6.5767
3.0772
6.91227
3.17525
7.26036
3.27415
7.62416
3.37602
8.00414
3.4852
8.39896
3.60164
8.80746
3.72357
9.22944
3.85025
9.66446
3.98273
10.1127
4.11992
10.5749
4.26244
11.052
4.40821
11.5449
4.55917
12.0537
4.71581
12.5794
4.87694
13.1226
5.04331
13.6846
5.21468
14.2659
5.39301
14.8652
5.5782
15.4836
5.76846
16.122
5.96675
16.7819
6.16976
17.4638
6.38151
18.1678
6.59931
18.8963
6.82451
19.6504
7.05726
7.29772
20.4279
1.38223
2.38427
-1.29959
1.46285
2.37026
1.55264
2.32519
1.65676
2.2523
1.76429
2.1939
1.88049
2.1269
2.0191
2.04633
2.1693
1.9666
2.32893
1.90303
2.51022
1.84208
2.72128
1.79365
2.96258
1.76949
3.23175