/*--------------------------------*- C++ -*----------------------------------*\
| =========                 |                                                 |
| \\      /  F ield         | OpenFOAM: The Open Source CFD Toolbox           |
|  \\    /   O peration     | Version:  2.3.1                                 |
|   \\  /    A nd           | Web:      www.OpenFOAM.org                      |
|    \\/     M anipulation  |                                                 |
\*---------------------------------------------------------------------------*/
FoamFile
{
    version     2.0;
    format      ascii;
    class       volVectorField;
    location    "47";
    object      U;
}
// * * * * * * * * * * * * * * * * * * * * * * * * * * * * * * * * * * * * * //

dimensions      [0 1 -1 0 0 0 0];

internalField   nonuniform List<vector> 
4825
(
(10.0003 -0.0001838 5.12317e-20)
(10.0002 -0.00083866 3.45407e-21)
(10.0007 -0.00249035 5.5546e-20)
(10.0008 -0.00579752 0)
(10.0022 -0.00904908 0)
(10.0029 -0.011627 0)
(10.005 -0.0143786 0)
(10.0059 -0.0163117 4.32086e-20)
(10.0085 -0.018278 -3.41835e-20)
(10.0089 -0.0207375 2.43684e-20)
(10.0112 -0.0225601 6.62846e-20)
(10.0111 -0.0256572 4.3963e-20)
(10.0123 -0.0320633 -4.75933e-20)
(10.0145 -0.0400363 0)
(10.0147 -0.0473577 0)
(10.0179 -0.0533808 0)
(10.0189 -0.0612859 -1.06373e-19)
(10.02 -0.0655987 6.77809e-20)
(10.0237 -0.0714588 -2.54523e-20)
(10.022 -0.0775133 8.18831e-20)
(10.0268 -0.0825586 0)
(10.0242 -0.0879061 3.16697e-20)
(10.0278 -0.0941281 7.17717e-20)
(10.025 -0.100212 -1.16278e-19)
(10.025 -0.10794 -4.51402e-20)
(10.0266 -0.117739 -5.13356e-20)
(10.0198 -0.127522 1.07119e-19)
(10.0257 -0.141722 1.12388e-19)
(10.0171 -0.155393 0)
(10.0232 -0.174157 7.09806e-20)
(10.0115 -0.19052 -1.55219e-19)
(10.0214 -0.212808 1.72082e-19)
(10.0047 -0.233495 -1.91734e-19)
(10.0145 -0.259061 -6.82741e-21)
(9.99651 -0.282881 6.22325e-21)
(10.0072 -0.317322 -2.71317e-19)
(9.98913 -0.351757 1.40631e-19)
(9.99432 -0.381556 1.68432e-19)
(9.96831 -0.433635 0)
(9.97897 -0.481093 0)
(9.94678 -0.537022 1.18847e-19)
(9.95347 -0.613345 -1.49131e-19)
(9.92517 -0.686733 1.4688e-19)
(9.9314 -0.794665 6.02769e-19)
(9.87919 -0.911047 -2.19914e-19)
(9.87545 -1.07716 2.72287e-19)
(9.79333 -1.25282 -3.00036e-19)
(9.78272 -1.55435 3.09742e-19)
(9.64068 -1.87964 0)
(9.5573 -2.2485 3.84635e-19)
(10.0008 -0.000325017 -5.15782e-20)
(10.001 -0.00210338 -5.65641e-20)
(10.0014 -0.00617837 -6.0988e-20)
(10.0017 -0.0113067 -4.0905e-21)
(10.0035 -0.0158855 4.39116e-21)
(10.0043 -0.0198854 -3.81955e-20)
(10.0062 -0.0230495 -4.11632e-20)
(10.0071 -0.0252945 -3.25547e-20)
(10.0089 -0.0273501 -1.18381e-20)
(10.0093 -0.0292713 -1.28234e-20)
(10.0112 -0.032266 1.37804e-20)
(10.0114 -0.0368708 1.44567e-21)
(10.0139 -0.0442926 6.37771e-20)
(10.0147 -0.0534462 -1.75763e-20)
(10.0163 -0.0589239 3.79971e-20)
(10.0172 -0.0673645 -4.13054e-20)
(10.0172 -0.0747014 2.23649e-20)
(10.0178 -0.0800413 7.26694e-20)
(10.0178 -0.0878113 3.48349e-22)
(10.0153 -0.0934623 3.90166e-22)
(10.0173 -0.101277 -6.38912e-20)
(10.0125 -0.107684 3.46673e-20)
(10.0148 -0.115908 3.8637e-20)
(10.0092 -0.122969 -4.16844e-20)
(10.0111 -0.133734 4.32829e-20)
(10.0052 -0.144378 2.018e-19)
(10.0034 -0.157557 -2.23915e-19)
(10.0048 -0.175848 -6.33747e-20)
(9.99392 -0.190675 -3.51095e-21)
(9.99945 -0.210989 0)
(9.98587 -0.230353 0)
(9.9874 -0.258084 0)
(9.97284 -0.276792 3.26329e-21)
(9.97546 -0.307708 2.35753e-19)
(9.95426 -0.335303 0)
(9.9551 -0.372111 8.21029e-20)
(9.93144 -0.412483 9.03996e-20)
(9.92894 -0.449635 -9.87749e-20)
(9.90256 -0.505739 0)
(9.90092 -0.560464 0)
(9.85767 -0.627316 1.57422e-19)
(9.866 -0.711501 -5.47759e-19)
(9.79401 -0.799562 2.01768e-19)
(9.79045 -0.912799 2.94815e-19)
(9.70321 -1.05057 -2.79813e-19)
(9.67409 -1.2033 1.88798e-19)
(9.56041 -1.4093 -2.26896e-19)
(9.48567 -1.61654 2.58238e-19)
(9.33214 -1.93289 -3.12762e-19)
(9.18746 -2.24431 -7.79294e-19)
(10.0009 -0.000472436 0)
(10.0014 -0.00315822 5.50467e-20)
(10.001 -0.0088129 3.22127e-20)
(10.0009 -0.0152025 -3.77687e-20)
(10.0024 -0.0206038 4.06753e-20)
(10.0028 -0.0242941 7.74795e-20)
(10.004 -0.0270269 -6.72094e-22)
(10.0041 -0.028956 -4.55275e-20)
(10.0054 -0.0306309 -1.22379e-20)
(10.0047 -0.0323841 1.31465e-20)
(10.0055 -0.0353127 0)
(10.005 -0.039387 -9.23816e-20)
(10.0044 -0.0479466 -5.07804e-20)
(10.0045 -0.0563246 -1.87843e-20)
(10.0037 -0.0633411 0)
(10.0029 -0.0706529 -6.55937e-20)
(10.0031 -0.0777235 -3.14819e-22)
(9.99898 -0.0820096 -3.50313e-22)
(10.0004 -0.0887559 2.78802e-20)
(9.9954 -0.0926826 0)
(9.99563 -0.10009 -3.41495e-20)
(9.98963 -0.104097 3.68602e-20)
(9.98935 -0.112573 0)
(9.98241 -0.116925 4.57137e-20)
(9.97902 -0.128909 1.96782e-21)
(9.97375 -0.135915 0)
(9.96647 -0.150773 -3.99297e-21)
(9.96397 -0.167411 0)
(9.9505 -0.177491 7.35392e-20)
(9.95115 -0.199443 -8.65713e-20)
(9.93265 -0.214815 2.91572e-19)
(9.93218 -0.242973 -2.15626e-19)
(9.91384 -0.257625 2.96444e-21)
(9.90629 -0.286634 0)
(9.88697 -0.316005 -8.20864e-20)
(9.87441 -0.340605 -8.46251e-20)
(9.85364 -0.387643 0)
(9.82807 -0.412879 1.24194e-19)
(9.80361 -0.472242 -4.2748e-21)
(9.77731 -0.511638 -4.81011e-19)
(9.72213 -0.574229 3.66825e-19)
(9.70564 -0.650874 -8.01087e-21)
(9.61354 -0.715656 0)
(9.59047 -0.813252 -2.78523e-19)
(9.48069 -0.937386 -3.76199e-19)
(9.40683 -1.03345 -1.65455e-20)
(9.28454 -1.22892 5.18565e-19)
(9.15341 -1.39619 -3.10215e-19)
(8.97742 -1.65721 7.89469e-19)
(8.68516 -1.96607 -2.92397e-20)
(10.0009 -0.00052848 0)
(10.0014 -0.0037966 -1.82027e-21)
(10.0004 -0.0111485 1.61387e-21)
(10.0001 -0.0189257 6.35765e-20)
(10.0013 -0.0250044 4.98115e-21)
(10.0013 -0.0285501 5.41339e-21)
(10.0022 -0.0308072 3.17208e-20)
(10.0018 -0.0321695 5.7366e-20)
(10.0023 -0.0337509 -1.87363e-20)
(10.0011 -0.0350775 1.34346e-20)
(10.0016 -0.0372285 0)
(9.99944 -0.0403405 6.31738e-20)
(9.99983 -0.0482641 3.41126e-20)
(9.99705 -0.0565866 7.53518e-20)
(9.99703 -0.0647499 -4.15691e-20)
(9.99409 -0.0707974 8.97077e-20)
(9.99284 -0.0794018 4.97728e-20)
(9.98863 -0.0832991 -2.73074e-20)
(9.98782 -0.0903566 2.98581e-20)
(9.98057 -0.0945744 -3.22247e-20)
(9.97981 -0.102028 0)
(9.97236 -0.10605 3.98039e-20)
(9.97026 -0.116353 -8.75177e-20)
(9.96218 -0.120688 4.57059e-22)
(9.9558 -0.13188 7.89844e-22)
(9.95035 -0.140663 6.11595e-20)
(9.93731 -0.151693 6.45649e-20)
(9.93593 -0.171431 -8.58695e-22)
(9.91684 -0.181308 -3.95856e-20)
(9.91231 -0.204285 -4.60665e-20)
(9.89593 -0.219328 -4.78495e-20)
(9.88133 -0.249407 3.21457e-21)
(9.86698 -0.272039 0)
(9.84273 -0.292485 1.22411e-21)
(9.82667 -0.334125 1.70137e-19)
(9.79033 -0.352595 0)
(9.77808 -0.401608 0)
(9.71979 -0.428151 -2.65904e-19)
(9.70716 -0.494281 5.40966e-19)
(9.64218 -0.516647 -1.00247e-19)
(9.60225 -0.599714 1.12817e-19)
(9.54639 -0.653197 -1.29895e-19)
(9.45035 -0.732961 4.51967e-19)
(9.40133 -0.826439 -1.89124e-19)
(9.28948 -0.93244 -2.51141e-19)
(9.14805 -1.05339 2.20089e-19)
(9.07483 -1.21199 0)
(8.82289 -1.40277 -4.26643e-19)
(8.64103 -1.57604 4.83174e-19)
(8.36615 -1.94173 0)
(10.0007 -0.000446327 -8.48955e-22)
(10.0011 -0.0038904 9.18075e-22)
(9.99974 -0.012351 3.16416e-20)
(9.99937 -0.020698 -3.42483e-20)
(9.99985 -0.0266653 -4.15935e-20)
(9.9996 -0.0299737 -3.99309e-20)
(9.99931 -0.0317616 -3.3465e-23)
(9.9985 -0.0322917 5.84278e-21)
(9.99781 -0.0330819 6.36466e-21)
(9.99599 -0.0334816 -6.84529e-21)
(9.9947 -0.0351471 2.24326e-20)
(9.99193 -0.0380074 -1.59475e-20)
(9.99064 -0.0465924 -8.77719e-21)
(9.98651 -0.0519653 -4.80973e-20)
(9.98482 -0.062324 3.11311e-20)
(9.9796 -0.0661144 -6.90556e-20)
(9.97713 -0.0747711 -5.01567e-20)
(9.97095 -0.0777531 1.34365e-20)
(9.96674 -0.083504 3.06371e-20)
(9.96018 -0.0886306 5.09093e-20)
(9.9537 -0.089488 1.89348e-20)
(9.94487 -0.0949904 -2.04655e-20)
(9.93927 -0.104805 6.81607e-20)
(9.92549 -0.106763 -7.50195e-20)
(9.9208 -0.118248 -2.8721e-20)
(9.90445 -0.123532 -6.16858e-20)
(9.89569 -0.138294 0)
(9.88248 -0.154212 3.69223e-20)
(9.86194 -0.159557 4.57848e-20)
(9.85186 -0.181003 5.16405e-20)
(9.83184 -0.200244 0)
(9.80827 -0.211062 -1.95842e-19)
(9.79296 -0.241241 1.48172e-19)
(9.7545 -0.247922 -1.67887e-19)
(9.73864 -0.286472 1.94012e-19)
(9.69459 -0.2968 -1.66848e-19)
(9.66814 -0.336217 6.69783e-20)
(9.61254 -0.357802 0)
(9.58212 -0.407747 6.89874e-21)
(9.50784 -0.419463 -1.08484e-19)
(9.46495 -0.501938 1.2867e-19)
(9.37939 -0.512457 -1.2739e-19)
(9.29906 -0.59913 2.9516e-20)
(9.21824 -0.665606 1.66495e-20)
(9.07464 -0.707336 5.08447e-19)
(8.9571 -0.84711 1.58595e-19)
(8.80577 -0.914201 6.06986e-19)
(8.56607 -1.03744 -7.1012e-19)
(8.37643 -1.22124 3.16125e-19)
(8.04305 -1.33113 4.17951e-19)
(10.0004 -0.000129952 0)
(10.0006 -0.00309304 0)
(9.99932 -0.011724 1.57263e-20)
(9.99852 -0.0204684 0)
(9.99817 -0.0259124 0)
(9.99723 -0.0287209 0)
(9.99615 -0.0296147 0)
(9.99464 -0.0289398 -2.93777e-21)
(9.99311 -0.0284489 2.21787e-20)
(9.99 -0.0274869 -2.05852e-20)
(9.98783 -0.0292802 -7.59516e-21)
(9.98384 -0.031066 -8.12499e-21)
(9.98137 -0.0379253 -1.76962e-20)
(9.97618 -0.0423853 1.94335e-20)
(9.97271 -0.0527542 3.21512e-20)
(9.9664 -0.0554902 2.34282e-20)
(9.96183 -0.0637608 0)
(9.95411 -0.064969 -1.43849e-20)
(9.94797 -0.0694517 2.56796e-23)
(9.94003 -0.0735562 -1.70898e-20)
(9.93059 -0.0748523 0)
(9.92244 -0.0779823 -2.12857e-20)
(9.91403 -0.0860289 -3.82575e-22)
(9.89813 -0.0850533 2.64258e-20)
(9.89092 -0.0967701 -2.50876e-23)
(9.87381 -0.0987258 3.35708e-20)
(9.86344 -0.111682 -5.51099e-20)
(9.84315 -0.120044 4.09873e-20)
(9.82936 -0.12922 -4.62608e-20)
(9.80529 -0.142346 1.91502e-21)
(9.78916 -0.165612 -2.96473e-20)
(9.75542 -0.166761 6.71718e-20)
(9.73813 -0.197832 -7.64774e-20)
(9.69916 -0.201239 0)
(9.66992 -0.236181 0)
(9.63445 -0.250603 5.86711e-20)
(9.58404 -0.260455 -1.05031e-19)
(9.5437 -0.317549 1.21154e-19)
(9.48422 -0.320579 5.07796e-20)
(9.42107 -0.356651 -1.09883e-19)
(9.35651 -0.415907 6.83181e-20)
(9.26174 -0.415275 -1.66856e-19)
(9.18578 -0.505436 2.99011e-19)
(9.05111 -0.514154 -4.45551e-19)
(8.94269 -0.623654 -1.36591e-19)
(8.75999 -0.651136 -1.68006e-19)
(8.6155 -0.780047 2.11835e-20)
(8.33748 -0.851342 4.28007e-19)
(8.13803 -0.984204 -2.91713e-19)
(7.71353 -1.11831 -1.95088e-19)
(10.0001 0.000496827 2.07203e-22)
(10 -0.00145254 -2.23429e-22)
(9.999 -0.0091868 -1.57252e-20)
(9.99764 -0.0173076 5.18547e-21)
(9.99651 -0.0218375 -1.13617e-21)
(9.99488 -0.0238648 0)
(9.99315 -0.0240478 1.33095e-21)
(9.99107 -0.0218419 -1.43083e-21)
(9.98875 -0.019583 -1.26497e-20)
(9.98493 -0.0170553 1.71711e-20)
(9.9819 -0.0185179 -1.85526e-20)
(9.97727 -0.0192524 -4.00638e-21)
(9.97336 -0.0251539 1.33205e-20)
(9.96774 -0.0277842 -1.46744e-20)
(9.96241 -0.0367699 5.34948e-21)
(9.9556 -0.0380286 -2.3389e-20)
(9.949 -0.0456739 6.35363e-21)
(9.94092 -0.0439011 -6.94449e-21)
(9.93311 -0.0499721 -2.35733e-20)
(9.92357 -0.0461999 -3.71087e-23)
(9.91446 -0.0524056 2.6195e-22)
(9.90204 -0.0479753 1.08297e-20)
(9.89191 -0.0558052 -2.37435e-20)
(9.87664 -0.0516908 3.99505e-20)
(9.86466 -0.0626595 -2.24083e-20)
(9.84515 -0.0594472 -6.02905e-22)
(9.83188 -0.0742831 1.80148e-20)
(9.81114 -0.0710562 -8.07016e-22)
(9.79272 -0.0887328 -1.02611e-21)
(9.76516 -0.0856391 1.35164e-20)
(9.74547 -0.108082 6.76876e-22)
(9.71279 -0.103276 1.89255e-20)
(9.68677 -0.130213 -3.94941e-20)
(9.64824 -0.12356 2.39599e-20)
(9.61781 -0.151348 -6.72828e-20)
(9.5622 -0.154625 1.49589e-20)
(9.52821 -0.164026 -1.78965e-20)
(9.46315 -0.187702 2.09419e-21)
(9.40631 -0.205654 5.28075e-20)
(9.33422 -0.193538 -5.70255e-20)
(9.26145 -0.260464 -1.41364e-19)
(9.15741 -0.233909 6.00667e-20)
(9.06245 -0.305608 -9.98866e-20)
(8.93248 -0.271966 2.15564e-19)
(8.8076 -0.372296 -7.17316e-20)
(8.61355 -0.328974 -1.43584e-19)
(8.44905 -0.450367 -1.33109e-19)
(8.18173 -0.432883 2.87283e-19)
(7.94488 -0.484131 -1.74824e-19)
(7.60434 -0.65447 1.85146e-20)
(9.99991 0.00149828 0)
(9.99966 0.000560657 0)
(9.9989 -0.00499388 0)
(9.99723 -0.0116849 -8.03347e-21)
(9.99545 -0.0151993 0)
(9.99323 -0.0163287 0)
(9.99131 -0.0152296 0)
(9.98876 -0.0119018 0)
(9.98541 -0.00637939 0)
(9.98199 -0.00424109 0)
(9.97824 -0.00271074 7.08881e-21)
(9.97385 -0.00311627 0)
(9.96938 -0.00735718 0)
(9.96357 -0.0100229 0)
(9.95771 -0.0153891 0)
(9.95048 -0.0176209 0)
(9.94303 -0.0204984 0)
(9.93456 -0.021744 1.35511e-20)
(9.92559 -0.020912 0)
(9.91574 -0.0201267 0)
(9.90523 -0.0168005 0)
(9.89321 -0.0177424 0)
(9.88136 -0.0169586 0)
(9.86696 -0.0124932 0)
(9.85163 -0.0103867 -1.42723e-20)
(9.83656 -0.0206583 0)
(9.81746 -0.0250188 0)
(9.79461 -0.013873 0)
(9.77772 -0.0206718 0)
(9.74934 -0.033555 0)
(9.72648 -0.0282981 0)
(9.69549 -0.036859 0)
(9.66557 -0.0513632 0)
(9.62773 -0.032258 0)
(9.58744 -0.0504295 2.60694e-20)
(9.54664 -0.0605976 3.02489e-20)
(9.48999 -0.0358513 -3.51451e-20)
(9.43925 -0.0733194 0)
(9.36988 -0.0594617 0)
(9.30146 -0.0680546 0)
(9.2259 -0.0826016 0)
(9.11641 -0.0523304 4.13756e-20)
(9.02493 -0.0948537 0)
(8.89406 -0.0947182 -6.06613e-20)
(8.74865 -0.0393619 0)
(8.57778 -0.145352 9.10906e-20)
(8.3939 -0.0533635 0)
(8.13337 -0.121958 0)
(7.90892 -0.160411 0)
(7.53539 -0.00139878 0)
(10 0.00253321 -1.83443e-22)
(9.99962 0.00252915 1.96983e-22)
(9.99917 -0.0004612 -1.31839e-20)
(9.99759 -0.00525276 2.9558e-21)
(9.99568 -0.00756431 1.015e-21)
(9.99342 -0.00768955 0)
(9.99168 -0.0054333 -1.19604e-21)
(9.98889 -0.000342492 1.28906e-21)
(9.98575 0.00672965 -1.08073e-20)
(9.9826 0.00949307 1.17515e-20)
(9.9785 0.0129457 -1.9604e-20)
(9.97461 0.0114573 3.61566e-21)
(9.96982 0.0122421 1.91867e-20)
(9.96452 0.00753307 -2.09189e-20)
(9.95876 0.00820081 -4.81418e-21)
(9.9512 0.0032264 5.7674e-21)
(9.94474 0.00688966 -1.14208e-20)
(9.93526 0.0038224 -1.46418e-22)
(9.9277 0.0104839 -2.0344e-20)
(9.91682 0.00854915 -2.27091e-20)
(9.90749 0.0174214 -2.31807e-22)
(9.89534 0.0154512 2.77106e-20)
(9.88329 0.0258162 -2.02937e-20)
(9.86908 0.0220054 1.05292e-20)
(9.85525 0.03232 3.36767e-20)
(9.83929 0.0258373 5.25123e-22)
(9.82196 0.0366559 1.65993e-20)
(9.79989 0.0295986 7.41285e-22)
(9.78239 0.0388588 8.69019e-22)
(9.75826 0.0293656 -4.68529e-20)
(9.7314 0.0459085 -1.42899e-20)
(9.70148 0.032271 -1.71352e-20)
(9.67348 0.0498385 3.57192e-20)
(9.63124 0.039213 -2.16995e-20)
(9.60025 0.0564153 3.6235e-20)
(9.55001 0.0522448 -4.22711e-20)
(9.5014 0.0677484 -1.39305e-20)
(9.455 0.064861 -7.68106e-20)
(9.38019 0.0902897 3.99992e-20)
(9.31234 0.0717709 5.2355e-20)
(9.23778 0.126563 6.53793e-21)
(9.13487 0.0886944 -9.45055e-20)
(9.03613 0.158439 -8.87675e-20)
(8.90895 0.116455 7.74037e-20)
(8.77465 0.211853 6.68634e-20)
(8.60278 0.14855 4.67587e-20)
(8.41758 0.266545 1.26609e-19)
(8.18036 0.216585 -5.39102e-19)
(7.90992 0.296153 1.6635e-19)
(7.58425 0.334356 -4.60635e-19)
(10.0004 0.00316703 0)
(9.99978 0.00407185 0)
(9.99959 0.00311382 1.31056e-20)
(9.99835 0.000455223 1.71951e-21)
(9.99663 -0.000794452 -1.85456e-21)
(9.99468 -0.000178714 0)
(9.99334 0.00289216 0)
(9.99067 0.00938777 2.38546e-21)
(9.98828 0.0173734 3.02328e-21)
(9.98533 0.0210701 -6.13859e-21)
(9.98229 0.0252636 -1.66808e-20)
(9.97836 0.0249179 6.61983e-21)
(9.97489 0.0265386 -1.51892e-20)
(9.96997 0.0249236 1.66138e-20)
(9.96495 0.0254606 7.74814e-21)
(9.95921 0.0237239 3.74738e-20)
(9.95359 0.0278404 0)
(9.94374 0.0267217 1.16358e-20)
(9.9388 0.0342337 -2.31078e-20)
(9.9278 0.0347119 -1.16216e-20)
(9.92066 0.0460928 0)
(9.90851 0.0468875 -1.81609e-20)
(9.89921 0.059649 3.96191e-20)
(9.88537 0.058781 -6.53407e-20)
(9.87329 0.0701878 4.57831e-20)
(9.85859 0.0721869 -2.71524e-20)
(9.84103 0.073096 1.35661e-20)
(9.82607 0.0899138 3.13289e-20)
(9.80479 0.0886736 -3.53629e-20)
(9.78435 0.0887531 -3.88818e-20)
(9.76355 0.110858 2.38486e-20)
(9.73202 0.104092 5.16225e-20)
(9.70992 0.126305 -5.90506e-20)
(9.67425 0.121257 0)
(9.6456 0.148467 0)
(9.59632 0.15705 4.55337e-20)
(9.56044 0.16229 3.75432e-20)
(9.51283 0.202156 -2.93364e-20)
(9.44245 0.196913 -1.25807e-19)
(9.39387 0.246813 9.15716e-20)
(9.31386 0.251573 6.01578e-20)
(9.22094 0.303842 1.42291e-19)
(9.15045 0.337639 -3.93392e-19)
(9.00035 0.370175 -2.03983e-19)
(8.90402 0.433191 1.18033e-19)
(8.73218 0.497829 -1.41139e-19)
(8.54105 0.573201 -3.8123e-19)
(8.34196 0.62963 3.26201e-19)
(8.06464 0.798199 -3.25364e-19)
(7.74252 0.825776 5.95564e-19)
(10.0008 0.00316632 6.01413e-22)
(10.0001 0.0050084 -6.52847e-22)
(9.99987 0.00506147 2.15547e-20)
(9.9992 0.00439557 -2.34139e-20)
(9.99778 0.00413382 -2.22621e-20)
(9.9965 0.0052449 -2.76741e-20)
(9.99565 0.00885032 3.71489e-23)
(9.99355 0.0162435 -4.27404e-21)
(9.99207 0.0243226 -4.69175e-21)
(9.98994 0.0285014 5.0468e-21)
(9.98812 0.0334119 2.8742e-20)
(9.9849 0.0346025 -2.87787e-20)
(9.98279 0.0360954 0)
(9.97851 0.0377976 -1.98476e-20)
(9.9749 0.0374687 5.29601e-21)
(9.96954 0.0386649 -5.00679e-20)
(9.9658 0.043135 -3.50473e-20)
(9.95694 0.0442415 2.94127e-20)
(9.95441 0.0516793 2.39115e-20)
(9.94374 0.0563717 1.4027e-20)
(9.93826 0.0660745 -1.37868e-20)
(9.92784 0.0728581 1.49013e-20)
(9.91942 0.0821949 3.11191e-20)
(9.90815 0.085157 -3.42822e-20)
(9.89909 0.100499 -2.20263e-20)
(9.88328 0.102327 -4.24649e-20)
(9.87184 0.109187 0)
(9.85533 0.11837 -7.44259e-21)
(9.8394 0.12507 6.67276e-20)
(9.8194 0.129168 3.94634e-20)
(9.80209 0.151157 0)
(9.7723 0.148524 -4.56458e-20)
(9.75483 0.172642 6.14862e-21)
(9.72045 0.172609 7.46135e-21)
(9.69421 0.205558 -1.40793e-19)
(9.6559 0.222472 3.45544e-20)
(9.6126 0.226092 5.16154e-20)
(9.57909 0.279644 0)
(9.51404 0.281956 -1.26237e-19)
(9.47084 0.338642 2.24238e-19)
(9.3871 0.341176 -1.70694e-19)
(9.33083 0.426217 -9.80311e-20)
(9.2263 0.431762 -1.13028e-19)
(9.14046 0.532973 3.36158e-19)
(9.00495 0.543912 1.79093e-19)
(8.89037 0.689389 3.59132e-19)
(8.69054 0.712355 -1.62166e-19)
(8.52565 0.852463 1.5977e-19)
(8.24816 1.00274 2.76574e-19)
(7.97621 1.08014 -3.6041e-19)
(10.001 0.00262173 5.39342e-22)
(10.0006 0.00493777 6.01285e-22)
(10.0004 0.00590273 -3.26824e-21)
(9.99994 0.00604368 4.76673e-20)
(9.99926 0.00652451 -6.73045e-22)
(9.99824 0.00795281 -7.72203e-22)
(9.99816 0.0121349 3.42744e-20)
(9.99634 0.0196126 2.18545e-20)
(9.99635 0.0276164 1.26238e-20)
(9.99466 0.0323056 -9.07721e-21)
(9.99423 0.0373991 0)
(9.99202 0.0393306 4.31399e-20)
(9.9912 0.0426105 2.21916e-20)
(9.98805 0.0440488 5.09301e-20)
(9.98668 0.0469545 -2.91606e-20)
(9.98229 0.0477754 5.99744e-20)
(9.98067 0.0521804 3.47409e-20)
(9.97506 0.0540476 -1.90605e-20)
(9.97121 0.0602471 -1.97424e-20)
(9.96653 0.0707059 2.13076e-20)
(9.96026 0.0760217 0)
(9.95448 0.0868017 -2.61714e-20)
(9.94775 0.0978956 -2.51228e-21)
(9.93826 0.103192 6.55095e-20)
(9.93486 0.118872 -6.60813e-20)
(9.91991 0.123384 4.19402e-20)
(9.91427 0.138324 3.91985e-20)
(9.89812 0.142712 -1.00334e-19)
(9.89162 0.159893 5.22929e-20)
(9.87039 0.165195 3.00615e-20)
(9.86184 0.188528 -1.26632e-19)
(9.83777 0.194567 7.88041e-20)
(9.8242 0.21942 -4.35313e-20)
(9.797 0.230089 1.51366e-19)
(9.77048 0.263688 -4.91675e-21)
(9.74883 0.280857 0)
(9.71032 0.308588 0)
(9.67127 0.352585 1.31204e-20)
(9.63762 0.376221 -5.6492e-20)
(9.59311 0.440146 1.49461e-19)
(9.52394 0.467884 8.00966e-20)
(9.48224 0.557578 2.71104e-19)
(9.39055 0.590277 -7.86856e-20)
(9.32407 0.708599 0)
(9.19913 0.763446 -1.21247e-20)
(9.10877 0.9277 -2.31274e-19)
(8.93189 1.01342 0)
(8.7862 1.20306 3.23414e-19)
(8.52484 1.42826 5.32306e-20)
(8.28891 1.64201 -4.7795e-19)
(10.0009 0.00197129 0)
(10.0008 0.00396762 3.3112e-20)
(10.0012 0.00531428 1.64267e-20)
(10.0007 0.00592201 -1.86803e-20)
(10.0005 0.00687846 1.7557e-20)
(9.99977 0.00866672 5.07529e-20)
(9.99998 0.0131969 -2.25786e-21)
(9.999 0.0201574 -2.94147e-20)
(9.99912 0.0273314 7.61909e-21)
(9.99885 0.0323653 -8.19369e-21)
(9.99872 0.0369357 0)
(9.99731 0.0396632 -5.71624e-20)
(9.99763 0.0434851 -1.15453e-20)
(9.99525 0.0450228 -3.51389e-20)
(9.99476 0.0485969 0)
(9.99137 0.0499595 -1.47606e-20)
(9.98968 0.0547216 1.30079e-22)
(9.98608 0.0579988 -3.13594e-20)
(9.98135 0.0661058 1.69918e-20)
(9.97938 0.0762426 0)
(9.97268 0.0825382 2.04581e-20)
(9.96986 0.0953768 -2.20922e-20)
(9.96473 0.103275 0)
(9.95664 0.108699 -2.6611e-20)
(9.95451 0.122914 6.02875e-20)
(9.94251 0.127283 0)
(9.93956 0.140532 2.89401e-20)
(9.92634 0.144292 -3.80378e-20)
(9.92156 0.160631 3.88431e-20)
(9.90521 0.166764 4.79047e-20)
(9.90006 0.18735 -4.62388e-20)
(9.87906 0.193597 5.77813e-20)
(9.87257 0.217734 8.51301e-21)
(9.84597 0.23069 -7.31566e-20)
(9.83269 0.255233 -4.81776e-20)
(9.80573 0.274872 -4.17819e-20)
(9.78697 0.316687 0)
(9.7494 0.337892 7.35369e-20)
(9.72099 0.371428 -1.60223e-19)
(9.69266 0.436964 7.06275e-20)
(9.63127 0.462305 -9.65567e-20)
(9.60951 0.544593 9.76883e-20)
(9.5216 0.587142 0)
(9.48795 0.698827 -3.19547e-19)
(9.37399 0.777851 4.19437e-19)
(9.30457 0.899582 -5.03372e-19)
(9.16424 1.04515 -4.19809e-20)
(9.03896 1.19073 1.92155e-19)
(8.85231 1.48805 -7.62588e-20)
(8.62481 1.70497 5.98726e-19)
(10.0008 0.00124554 -2.85516e-20)
(10.0008 0.00277019 -3.29664e-20)
(10.0015 0.00400308 -3.57795e-20)
(10.0013 0.00487784 2.34562e-21)
(10.0017 0.00591671 -2.51795e-21)
(10.0014 0.00769423 -2.2705e-20)
(10.0023 0.0117923 -2.45392e-20)
(10.0024 0.0183545 -3.10985e-20)
(10.004 0.0244589 6.87745e-21)
(10.0045 0.0299301 7.4648e-21)
(10.0058 0.0342569 -8.0263e-21)
(10.0059 0.0376256 3.09676e-21)
(10.0071 0.0419503 3.59736e-20)
(10.0061 0.0446622 1.01427e-20)
(10.0075 0.04846 -2.18958e-20)
(10.0049 0.0515254 2.36036e-20)
(10.0061 0.0560018 -1.27249e-20)
(10.0026 0.0605495 1.2584e-20)
(10.003 0.0673736 -6.64561e-23)
(10.0012 0.0793337 -7.64214e-23)
(9.99934 0.0858643 3.50115e-20)
(9.99893 0.0988083 -1.89648e-20)
(9.99283 0.108407 0)
(9.99347 0.118328 0)
(9.98491 0.131756 7.0284e-20)
(9.98128 0.139893 -3.68079e-21)
(9.97722 0.154266 -5.65774e-20)
(9.96472 0.162607 3.16136e-20)
(9.96464 0.179338 -7.22026e-20)
(9.94944 0.189353 0)
(9.94815 0.209614 0)
(9.92943 0.222157 0)
(9.92505 0.242259 1.07704e-19)
(9.91268 0.268253 -6.03521e-21)
(9.89079 0.287468 0)
(9.88393 0.315822 4.05294e-20)
(9.86754 0.361911 -3.94677e-20)
(9.83541 0.388083 4.31116e-20)
(9.82579 0.436706 0)
(9.79855 0.492911 0)
(9.75322 0.545886 -6.60358e-20)
(9.74699 0.618884 5.53782e-20)
(9.68088 0.709258 -8.44033e-20)
(9.64985 0.795759 -5.06068e-20)
(9.59135 0.933733 -1.04106e-20)
(9.52931 1.05462 2.41011e-19)
(9.43148 1.25637 -1.22404e-19)
(9.33958 1.43511 -1.21018e-19)
(9.15325 1.75938 -2.13231e-19)
(9.03214 2.06798 -8.12841e-20)
(10.0004 0.000558733 2.83675e-20)
(10.0004 0.00124984 0)
(10.0011 0.00214051 -3.22255e-20)
(10.0011 0.00284303 0)
(10.0017 0.0039131 0)
(10.0011 0.00500282 0)
(10.0013 0.00692898 0)
(10.0012 0.011442 2.44639e-20)
(10.0021 0.0169872 1.8409e-20)
(10.0033 0.0220652 -1.29134e-20)
(10.0049 0.0269756 -3.59341e-20)
(10.0055 0.0296937 4.09321e-20)
(10.0082 0.0331141 -4.4115e-20)
(10.0079 0.0356112 0)
(10.0108 0.0388692 0)
(10.0092 0.0417081 0)
(10.0108 0.04532 5.54452e-20)
(10.0095 0.0488986 -8.58314e-20)
(10.0068 0.0538696 0)
(10.0089 0.0624493 -2.74486e-20)
(10.0041 0.0698452 0)
(10.0066 0.0799886 -1.49589e-20)
(10.0035 0.0897408 -3.59864e-20)
(10.0032 0.0986538 5.57676e-20)
(10.0035 0.110711 -6.57693e-20)
(9.99835 0.117419 -6.78315e-20)
(10.002 0.129743 5.23575e-20)
(9.99221 0.137833 -4.79735e-20)
(9.99546 0.151902 -5.11368e-20)
(9.98434 0.160181 -3.00528e-20)
(9.98521 0.176619 6.50986e-20)
(9.97771 0.190296 -7.03574e-20)
(9.96833 0.206083 7.61132e-20)
(9.96268 0.226881 -8.87902e-20)
(9.95271 0.24856 -6.45383e-21)
(9.93424 0.269238 9.57329e-20)
(9.94174 0.310068 -4.2073e-20)
(9.91458 0.335364 -5.65196e-20)
(9.91271 0.374731 0)
(9.89803 0.422781 0)
(9.87013 0.477961 -2.49125e-20)
(9.85808 0.533282 3.90962e-20)
(9.82047 0.633098 -2.57381e-20)
(9.78465 0.70473 -2.15686e-20)
(9.76125 0.843532 5.21764e-20)
(9.70532 0.942483 -5.82426e-20)
(9.66824 1.15795 6.45062e-20)
(9.65496 1.35028 -6.47482e-21)
(9.5445 1.67872 -9.74854e-21)
(9.47571 2.08199 3.76286e-20)
(10.2047 0.00647734 0)
(10.1981 -0.00971781 8.95343e-22)
(10.1969 -0.00673571 -3.29497e-20)
(10.1912 -0.0127584 1.97856e-20)
(10.19 -0.0184296 -2.56499e-21)
(10.188 -0.0196969 2.75154e-21)
(10.1857 -0.0263358 -1.05831e-20)
(10.1838 -0.0299918 -7.06834e-21)
(10.1834 -0.0334967 1.36576e-21)
(10.1804 -0.0384344 -1.64366e-20)
(10.1795 -0.0426012 -3.9727e-20)
(10.1771 -0.0470961 -1.80472e-20)
(10.1757 -0.0516271 -6.06179e-21)
(10.1736 -0.0558997 0)
(10.1722 -0.0606529 0)
(10.1693 -0.0642975 0)
(10.168 -0.0686561 3.69328e-20)
(10.1657 -0.0711345 -4.15169e-20)
(10.1643 -0.0733946 1.24045e-20)
(10.1612 -0.0741494 -2.56229e-20)
(10.1589 -0.0748507 -3.04878e-20)
(10.1562 -0.0754077 -3.36873e-20)
(10.1537 -0.0742064 3.79818e-20)
(10.1513 -0.0729882 6.36459e-20)
(10.1476 -0.0705923 -2.37718e-20)
(10.1449 -0.0688828 -2.48919e-20)
(10.142 -0.0646939 0)
(10.1415 -0.0603596 -6.34194e-20)
(10.1417 -0.0562252 3.64406e-20)
(10.1394 -0.0538796 4.13186e-20)
(10.1336 -0.0517053 -3.10969e-22)
(10.1253 -0.049256 0)
(10.1059 -0.0452878 -5.74365e-20)
(10.0847 -0.0391201 6.23992e-20)
(10.0446 -0.0183258 1.42636e-19)
(9.99715 0.0253187 -5.32677e-21)
(9.95358 0.0767475 -8.99775e-20)
(9.92588 0.14755 0)
(9.8934 0.266321 -2.58702e-21)
(9.91171 0.422748 4.38764e-20)
(9.92559 0.63093 -1.66914e-20)
(10.0224 0.862784 0)
(10.1354 1.07467 -2.49903e-20)
(10.3307 1.28602 -2.65079e-20)
(10.5891 1.46462 0)
(10.8788 1.70387 1.26075e-19)
(11.2204 1.91698 8.49874e-20)
(11.7201 1.95756 4.70478e-19)
(12.1808 1.94053 -2.51513e-19)
(12.7896 1.71318 6.38975e-19)
(10.1859 -0.000510177 1.70608e-20)
(10.1807 -0.00963334 1.88738e-20)
(10.1804 -0.0120491 1.82709e-20)
(10.1797 -0.0178864 -1.99186e-20)
(10.1782 -0.022598 -1.32982e-20)
(10.1763 -0.0261511 0)
(10.1756 -0.0314505 1.3903e-20)
(10.1734 -0.0345159 0)
(10.1726 -0.0393525 2.20194e-20)
(10.1705 -0.0425701 -5.09177e-21)
(10.1699 -0.0465561 2.14473e-20)
(10.1679 -0.0498145 2.38888e-20)
(10.1674 -0.0528558 -2.98783e-20)
(10.1657 -0.0555755 3.30434e-20)
(10.1646 -0.057799 0)
(10.1627 -0.0597492 -9.84026e-21)
(10.1608 -0.0614518 1.05955e-20)
(10.1583 -0.0625817 0)
(10.1571 -0.0634774 -1.35082e-20)
(10.1553 -0.0626262 -4.3037e-22)
(10.1543 -0.0620931 1.6158e-20)
(10.1529 -0.0608313 -3.6824e-20)
(10.1515 -0.0585345 2.02478e-20)
(10.1482 -0.0578089 -4.39241e-20)
(10.1453 -0.0554309 4.78737e-20)
(10.1473 -0.0497204 -8.0336e-20)
(10.1516 -0.0437848 3.01365e-20)
(10.1523 -0.0386453 -3.2621e-20)
(10.1455 -0.0351712 0)
(10.1415 -0.032728 -4.06218e-20)
(10.1294 -0.0290123 -4.5146e-20)
(10.1099 -0.021912 4.84539e-20)
(10.0829 -0.0113323 -1.05059e-19)
(10.0606 0.0148755 5.71352e-20)
(10.0332 0.0614908 -5.72349e-20)
(10.0142 0.128242 -7.11522e-20)
(10.0022 0.211115 3.07998e-20)
(10.0149 0.330828 -3.05705e-20)
(10.0004 0.455313 -9.74571e-20)
(10.0534 0.596186 -1.51418e-20)
(10.1243 0.762784 -3.51949e-21)
(10.261 0.914522 0)
(10.4334 1.05364 1.92313e-20)
(10.644 1.212 2.07797e-20)
(10.9097 1.33844 1.53422e-19)
(11.2164 1.45618 -2.04826e-19)
(11.5199 1.50988 -3.28898e-19)
(11.9382 1.49108 0)
(12.3252 1.47578 -2.46662e-19)
(12.7079 1.40245 5.80268e-19)
(10.1755 0.00194899 -1.71515e-20)
(10.1716 -0.00818193 -3.05817e-20)
(10.1698 -0.00934409 -7.28317e-22)
(10.1656 -0.0128157 -1.66274e-21)
(10.1647 -0.0200119 1.51602e-20)
(10.1628 -0.020572 -2.02821e-21)
(10.1618 -0.0266534 -5.95945e-23)
(10.1603 -0.0301004 -2.53158e-21)
(10.1601 -0.0334505 2.81782e-20)
(10.1584 -0.0377512 0)
(10.1584 -0.0408913 0)
(10.1571 -0.0442463 -1.51595e-20)
(10.1571 -0.0475232 3.01191e-20)
(10.1563 -0.0502864 -3.3321e-20)
(10.1565 -0.052921 0)
(10.1557 -0.0548272 0)
(10.1559 -0.0563863 1.18697e-20)
(10.1554 -0.0566056 -1.27865e-20)
(10.1557 -0.0572104 2.91379e-20)
(10.1549 -0.0565522 0)
(10.1552 -0.0559788 -3.50847e-20)
(10.1557 -0.0545187 3.73227e-20)
(10.1565 -0.0525446 -4.10738e-20)
(10.1562 -0.0511784 0)
(10.1575 -0.0467729 2.48312e-20)
(10.1604 -0.0419578 2.73097e-20)
(10.1652 -0.0379485 2.98222e-20)
(10.1637 -0.0311041 -6.43116e-20)
(10.155 -0.0243088 0)
(10.1563 -0.0152254 -3.75058e-20)
(10.1482 0.000674126 -4.0405e-20)
(10.1415 0.0224634 0)
(10.1385 0.0494351 -2.40852e-20)
(10.1482 0.0928591 2.6209e-20)
(10.1486 0.14303 5.85041e-20)
(10.1587 0.196388 -2.46176e-20)
(10.1737 0.257483 -5.75794e-21)
(10.2275 0.327157 2.48709e-20)
(10.2541 0.396845 1.03301e-20)
(10.3453 0.49004 4.42118e-20)
(10.425 0.589156 1.27897e-22)
(10.5329 0.685761 -1.55232e-20)
(10.6889 0.783442 -1.99147e-20)
(10.8767 0.901574 -5.1368e-20)
(11.0857 0.993686 -3.14528e-20)
(11.3416 1.08972 6.34036e-21)
(11.5539 1.11632 1.32121e-19)
(11.8971 1.19391 -3.479e-19)
(12.2357 1.15089 2.16289e-19)
(12.6115 1.07058 0)
(10.1565 -0.00339313 -1.25355e-20)
(10.1522 -0.00750264 2.56529e-20)
(10.1524 -0.0145544 -8.86703e-22)
(10.1528 -0.0167801 1.75335e-20)
(10.1518 -0.0233315 1.81419e-20)
(10.1509 -0.0259092 -1.74827e-20)
(10.151 -0.0306401 -2.4181e-20)
(10.1499 -0.0335867 0)
(10.1502 -0.0376362 -2.30066e-20)
(10.1491 -0.0400721 0)
(10.1498 -0.0432427 -7.38726e-21)
(10.1494 -0.0454593 2.32062e-20)
(10.1503 -0.0474458 -1.84024e-20)
(10.1504 -0.0489344 0)
(10.1513 -0.0500643 0)
(10.1517 -0.0505659 0)
(10.1536 -0.0524088 0)
(10.154 -0.0532343 -1.42501e-20)
(10.1552 -0.0544992 -4.46137e-20)
(10.1556 -0.0540153 1.62695e-20)
(10.1575 -0.0533134 7.16725e-20)
(10.1594 -0.0517433 -3.95622e-20)
(10.1606 -0.048899 0)
(10.1627 -0.0457787 2.60136e-22)
(10.1684 -0.0389244 2.51483e-20)
(10.1701 -0.0313619 0)
(10.1753 -0.0246498 1.48879e-20)
(10.178 -0.0167254 4.84548e-20)
(10.1778 -0.00733594 -1.70926e-20)
(10.1838 0.00655667 3.80671e-20)
(10.1887 0.0212097 4.10412e-20)
(10.1928 0.0412884 2.04367e-20)
(10.2033 0.0643167 -2.22374e-20)
(10.2222 0.0988875 0)
(10.23 0.132866 0)
(10.2565 0.167341 2.51464e-20)
(10.2753 0.224337 0)
(10.3342 0.288171 -2.21534e-20)
(10.3689 0.36473 -8.88921e-21)
(10.4738 0.458168 9.62565e-21)
(10.567 0.534789 1.51289e-23)
(10.6848 0.619414 1.59985e-20)
(10.8591 0.699435 0)
(11.0278 0.766719 0)
(11.2068 0.799774 0)
(11.4658 0.813953 9.61571e-20)
(11.7107 0.777167 1.304e-19)
(12.0335 0.800876 -1.75524e-20)
(12.2655 0.737946 2.3593e-19)
(12.6236 0.792115 0)
(10.1436 -0.000747121 -2.14083e-21)
(10.1414 -0.00601083 -1.34507e-20)
(10.1398 -0.0116183 -5.0696e-22)
(10.1372 -0.0124049 -1.66433e-20)
(10.137 -0.0205992 -7.86692e-21)
(10.1362 -0.0211942 8.6587e-21)