/*--------------------------------*- C++ -*----------------------------------*\
| =========                 |                                                 |
| \\      /  F ield         | OpenFOAM: The Open Source CFD Toolbox           |
|  \\    /   O peration     | Version:  2.3.1                                 |
|   \\  /    A nd           | Web:      www.OpenFOAM.org                      |
|    \\/     M anipulation  |                                                 |
\*---------------------------------------------------------------------------*/
FoamFile
{
    version     2.0;
    format      ascii;
    class       volVectorField;
    location    "47";
    object      U_0;
}
// * * * * * * * * * * * * * * * * * * * * * * * * * * * * * * * * * * * * * //

dimensions      [0 1 -1 0 0 0 0];

internalField   nonuniform List<vector> 
4825
(
(10.0003 -0.000185669 5.10519e-20)
(10.0002 -0.000854637 3.44244e-21)
(10.0007 -0.00254327 5.53673e-20)
(10.0008 -0.00585631 0)
(10.0022 -0.00908309 0)
(10.003 -0.0116411 0)
(10.005 -0.0143716 0)
(10.006 -0.0162844 4.30822e-20)
(10.0086 -0.0182598 -3.40685e-20)
(10.0089 -0.0207083 2.42827e-20)
(10.0112 -0.0225247 6.60637e-20)
(10.0111 -0.0257285 4.38418e-20)
(10.0124 -0.03224 -4.74499e-20)
(10.0146 -0.0402048 0)
(10.0148 -0.0474858 0)
(10.0181 -0.0534995 0)
(10.019 -0.0613454 -1.05935e-19)
(10.0202 -0.065586 6.74622e-20)
(10.0239 -0.0714735 -2.5343e-20)
(10.0222 -0.0774749 8.15047e-20)
(10.027 -0.0824757 0)
(10.0244 -0.0878286 3.14851e-20)
(10.0281 -0.0940444 7.13993e-20)
(10.0252 -0.10012 -1.1565e-19)
(10.0254 -0.107936 -4.49506e-20)
(10.0269 -0.117738 -5.11435e-20)
(10.0202 -0.127536 1.06552e-19)
(10.0262 -0.141856 1.11642e-19)
(10.0177 -0.155577 0)
(10.0237 -0.174366 7.04651e-20)
(10.0123 -0.190656 -1.54051e-19)
(10.0222 -0.212996 1.70703e-19)
(10.0055 -0.233756 -1.90124e-19)
(10.0155 -0.25926 -6.87209e-21)
(9.9976 -0.28318 6.25631e-21)
(10.0086 -0.317732 -2.68651e-19)
(9.99056 -0.351597 1.39138e-19)
(9.99581 -0.381529 1.66771e-19)
(9.97014 -0.434246 0)
(9.98087 -0.481079 0)
(9.94877 -0.537458 1.17304e-19)
(9.95544 -0.613513 -1.4733e-19)
(9.92811 -0.687572 1.44841e-19)
(9.93439 -0.795516 5.95585e-19)
(9.8832 -0.911877 -2.17131e-19)
(9.87977 -1.07809 2.68653e-19)
(9.79996 -1.25434 -2.9616e-19)
(9.78897 -1.55771 3.045e-19)
(9.64747 -1.87891 0)
(9.56544 -2.25451 3.7665e-19)
(10.0008 -0.00033416 -5.1399e-20)
(10.001 -0.00215077 -5.63927e-20)
(10.0014 -0.00627727 -6.08225e-20)
(10.0017 -0.0113886 -4.0785e-21)
(10.0035 -0.0159392 4.37828e-21)
(10.0043 -0.0199078 -3.81058e-20)
(10.0063 -0.023042 -4.10704e-20)
(10.0071 -0.0252657 -3.24561e-20)
(10.0089 -0.0273098 -1.18071e-20)
(10.0094 -0.029241 -1.27887e-20)
(10.0113 -0.0322907 1.37426e-20)
(10.0115 -0.0369855 1.49322e-21)
(10.014 -0.0444841 6.35773e-20)
(10.0148 -0.0535896 -1.75261e-20)
(10.0164 -0.059037 3.78864e-20)
(10.0173 -0.0674966 -4.11817e-20)
(10.0173 -0.0747405 2.22966e-20)
(10.018 -0.080078 7.24124e-20)
(10.0179 -0.0878211 3.42954e-22)
(10.0155 -0.093462 3.83839e-22)
(10.0174 -0.101249 -6.36516e-20)
(10.0127 -0.107652 3.45331e-20)
(10.015 -0.115853 3.84692e-20)
(10.0094 -0.122943 -4.14982e-20)
(10.0114 -0.133782 4.30427e-20)
(10.0054 -0.14444 2.00789e-19)
(10.0039 -0.157795 -2.22779e-19)
(10.0052 -0.176043 -6.30404e-20)
(9.99436 -0.190876 -3.52714e-21)
(9.99998 -0.211299 0)
(9.98637 -0.230793 0)
(9.98801 -0.258258 0)
(9.97347 -0.27696 3.34475e-21)
(9.97623 -0.308006 2.34013e-19)
(9.95497 -0.335517 0)
(9.95607 -0.372637 8.15716e-20)
(9.93229 -0.412511 8.97076e-20)
(9.93028 -0.449821 -9.79978e-20)
(9.90389 -0.506184 0)
(9.9023 -0.560721 0)
(9.85981 -0.627999 1.56052e-19)
(9.86793 -0.711871 -5.43281e-19)
(9.79633 -0.80032 2.00029e-19)
(9.79344 -0.914048 2.929e-19)
(9.70588 -1.05144 -2.77354e-19)
(9.67863 -1.20565 1.87365e-19)
(9.56299 -1.41052 -2.25343e-19)
(9.4914 -1.62071 2.55824e-19)
(9.3359 -1.93648 -3.10602e-19)
(9.19593 -2.24749 -7.72563e-19)
(10.001 -0.000488785 0)
(10.0014 -0.00324365 5.48929e-20)
(10.001 -0.00895763 3.20987e-20)
(10.0009 -0.0153273 -3.77049e-20)
(10.0025 -0.0206793 4.06129e-20)
(10.0028 -0.0243252 7.73387e-20)
(10.0041 -0.0270292 -7.14533e-22)
(10.0042 -0.0289377 -4.54754e-20)
(10.0055 -0.0306055 -1.22171e-20)
(10.0048 -0.0323747 1.31229e-20)
(10.0056 -0.0353533 0)
(10.0051 -0.0395259 -9.22275e-20)
(10.0044 -0.0482005 -5.07202e-20)
(10.0047 -0.0565237 -1.87729e-20)
(10.0039 -0.0634967 0)
(10.003 -0.0708112 -6.54885e-20)
(10.0032 -0.0777913 -3.11552e-22)
(9.99918 -0.0820474 -3.45804e-22)
(10.0006 -0.088785 2.78113e-20)
(9.9956 -0.0927161 0)
(9.99586 -0.100095 -3.40557e-20)
(9.98988 -0.104114 3.67578e-20)
(9.98965 -0.112564 0)
(9.98267 -0.116969 4.55627e-20)
(9.97942 -0.129016 1.99128e-21)
(9.97406 -0.136064 0)
(9.96698 -0.151173 -4.05726e-21)
(9.96436 -0.167587 0)
(9.95108 -0.177713 7.31791e-20)
(9.95174 -0.199941 -8.61735e-20)
(9.93327 -0.215351 2.90313e-19)
(9.93307 -0.24335 -2.14587e-19)
(9.91458 -0.257847 3.04255e-21)
(9.90739 -0.287332 0)
(9.88792 -0.316166 -8.1706e-20)
(9.87586 -0.341444 -8.40776e-20)
(9.85467 -0.388061 0)
(9.82981 -0.413492 1.23628e-19)
(9.80535 -0.472896 -4.38452e-21)
(9.77906 -0.512359 -4.7818e-19)
(9.72454 -0.575517 3.64497e-19)
(9.70808 -0.651756 -8.15594e-21)
(9.61627 -0.716595 0)
(9.59427 -0.815731 -2.76435e-19)
(9.48324 -0.938643 -3.73803e-19)
(9.41208 -1.03615 -1.64157e-20)
(9.28775 -1.23302 5.15112e-19)
(9.1604 -1.39866 -3.08324e-19)
(8.98093 -1.66327 7.84221e-19)
(8.69228 -1.9709 -2.98683e-20)
(10.0009 -0.000551846 0)
(10.0014 -0.00392151 -1.81689e-21)
(10.0004 -0.0113635 1.56598e-21)
(10.0001 -0.0190985 6.35221e-20)
(10.0014 -0.0251127 5.02855e-21)
(10.0014 -0.0285973 5.46549e-21)
(10.0022 -0.0308156 3.16757e-20)
(10.0019 -0.0321659 5.73074e-20)
(10.0024 -0.033741 -1.87271e-20)
(10.0012 -0.0350792 1.34275e-20)
(10.0016 -0.0372583 0)
(9.99953 -0.0404667 6.3159e-20)
(9.99994 -0.0485832 3.40777e-20)
(9.99717 -0.0568623 7.53153e-20)
(9.99717 -0.0649579 -4.15745e-20)
(9.99425 -0.0710192 8.96487e-20)
(9.993 -0.0795538 4.97696e-20)
(9.98884 -0.0834049 -2.73023e-20)
(9.98801 -0.0904516 2.98281e-20)
(9.98079 -0.0946552 -3.21926e-20)
(9.98006 -0.102098 0)
(9.97261 -0.10616 3.97392e-20)
(9.97059 -0.116454 -8.74159e-20)
(9.96247 -0.120774 5.0235e-22)
(9.95623 -0.132073 8.26742e-22)
(9.95069 -0.140809 6.1069e-20)
(9.93784 -0.152144 6.43671e-20)
(9.93646 -0.17175 -9.26726e-22)
(9.91729 -0.181732 -3.94788e-20)
(9.91309 -0.204794 -4.59357e-20)
(9.89645 -0.219965 -4.76356e-20)
(9.88222 -0.250315 3.24513e-21)
(9.86765 -0.272311 0)
(9.84379 -0.293505 1.30479e-21)
(9.82742 -0.334774 1.6942e-19)
(9.79176 -0.353233 0)
(9.77901 -0.402635 0)
(9.72121 -0.429379 -2.65122e-19)
(9.70887 -0.494955 5.3854e-19)
(9.64347 -0.517739 -1.00003e-19)
(9.60451 -0.601618 1.12437e-19)
(9.54796 -0.654644 -1.29199e-19)
(9.45265 -0.734843 4.50139e-19)
(9.40495 -0.828616 -1.883e-19)
(9.29051 -0.93557 -2.50294e-19)
(9.15289 -1.05566 2.18602e-19)
(9.07828 -1.21628 0)
(8.82426 -1.40611 -4.25173e-19)
(8.6473 -1.58214 4.81156e-19)
(8.36991 -1.95078 0)
(10.0007 -0.000479029 -8.49027e-22)
(10.0011 -0.00405431 9.17606e-22)
(9.99975 -0.0126415 3.16367e-20)
(9.99941 -0.0209208 -3.42428e-20)
(9.9999 -0.0268099 -4.15957e-20)
(9.99966 -0.0300495 -3.99346e-20)
(9.99937 -0.0317917 -3.39034e-23)
(9.99857 -0.0323061 5.84859e-21)
(9.99789 -0.0330936 6.37154e-21)
(9.99606 -0.0335148 -6.85269e-21)
(9.99478 -0.0352243 2.2485e-20)
(9.99204 -0.0381765 -1.59426e-20)
(9.99073 -0.046931 -8.78718e-21)
(9.98663 -0.0522926 -4.81141e-20)
(9.98495 -0.0626068 3.11086e-20)
(9.97975 -0.0663651 -6.90963e-20)
(9.9773 -0.0749959 -5.01535e-20)
(9.97112 -0.0779043 1.34243e-20)
(9.96694 -0.0837072 3.06792e-20)
(9.96039 -0.0886902 5.09561e-20)
(9.9539 -0.0895621 1.89362e-20)
(9.94515 -0.0952966 -2.04669e-20)
(9.93951 -0.104986 6.81356e-20)
(9.92577 -0.106994 -7.49828e-20)
(9.92119 -0.118526 -2.87201e-20)
(9.90472 -0.123968 -6.15812e-20)
(9.89621 -0.138993 0)
(9.88283 -0.154597 3.67911e-20)
(9.86241 -0.160107 4.57688e-20)
(9.85259 -0.182027 5.16133e-20)
(9.83229 -0.200753 0)
(9.8091 -0.212079 -1.95514e-19)
(9.79353 -0.241923 1.48042e-19)
(9.75537 -0.248775 -1.67519e-19)
(9.73961 -0.287646 1.93464e-19)
(9.69548 -0.297704 -1.66466e-19)
(9.66923 -0.337646 6.68843e-20)
(9.61374 -0.359226 0)
(9.58348 -0.408825 6.9682e-21)
(9.50909 -0.421206 -1.08357e-19)
(9.46671 -0.503945 1.285e-19)
(9.38074 -0.514316 -1.26982e-19)
(9.30144 -0.60281 2.97407e-20)
(9.22022 -0.666909 1.68117e-20)
(9.07631 -0.711071 5.07012e-19)
(8.96075 -0.851791 1.5804e-19)
(8.80762 -0.916208 6.05737e-19)
(8.5694 -1.04462 -7.08633e-19)
(8.38109 -1.22508 3.15659e-19)
(8.04424 -1.34093 4.17012e-19)
(10.0004 -0.000171352 0)
(10.0006 -0.00329304 0)
(9.99933 -0.0120823 1.57883e-20)
(9.99855 -0.0207352 0)
(9.99821 -0.0260892 0)
(9.99728 -0.0288253 0)
(9.99621 -0.0296658 0)
(9.9947 -0.0289622 -2.9457e-21)
(9.99317 -0.0284731 2.22581e-20)
(9.99006 -0.0275583 -2.0661e-20)
(9.9879 -0.029409 -7.57494e-21)
(9.98394 -0.0312719 -8.14809e-21)
(9.98145 -0.0382703 -1.77634e-20)
(9.97627 -0.0427787 1.95064e-20)
(9.97281 -0.0531137 3.2217e-20)
(9.96651 -0.0558082 2.34786e-20)
(9.96195 -0.0640428 0)
(9.95424 -0.0651649 -1.4417e-20)
(9.94814 -0.0697186 6.9178e-23)
(9.94017 -0.073749 -1.70784e-20)
(9.93078 -0.0750033 0)
(9.92269 -0.0783334 -2.13432e-20)
(9.91419 -0.0862568 -3.58654e-22)
(9.89837 -0.0853914 2.64455e-20)
(9.89124 -0.0971875 -5.44089e-23)
(9.87408 -0.0991946 3.35957e-20)
(9.86375 -0.112343 -5.51771e-20)
(9.84349 -0.120632 4.09809e-20)
(9.82971 -0.129921 -4.62447e-20)
(9.80576 -0.143571 1.98909e-21)
(9.78951 -0.166361 -2.96756e-20)
(9.75596 -0.167696 6.71385e-20)
(9.73876 -0.199048 -7.63628e-20)
(9.69955 -0.202475 0)
(9.67085 -0.237806 0)
(9.63494 -0.251045 5.85932e-20)
(9.58485 -0.262895 -1.04883e-19)
(9.5447 -0.319394 1.21116e-19)
(9.48498 -0.321428 5.0701e-20)
(9.42228 -0.359959 -1.09803e-19)
(9.35745 -0.417337 6.83328e-20)
(9.26369 -0.417454 -1.66649e-19)
(9.18653 -0.508511 2.98873e-19)
(9.05276 -0.517745 -4.45037e-19)
(8.9439 -0.627063 -1.36476e-19)
(8.76243 -0.656026 -1.67696e-19)
(8.61694 -0.784658 2.1288e-20)
(8.33971 -0.856078 4.27518e-19)
(8.14059 -0.99087 -2.91242e-19)
(7.71592 -1.12257 -1.94806e-19)
(10.0001 0.000429232 2.08186e-22)
(10 -0.00165812 -2.2454e-22)
(9.999 -0.00959344 -1.57868e-20)
(9.99766 -0.0176069 5.21689e-21)
(9.99653 -0.0220437 -1.14184e-21)
(9.9949 -0.0240021 0)
(9.9932 -0.0241274 1.33764e-21)
(9.99109 -0.0218524 -1.43803e-21)
(9.98878 -0.0196068 -1.27003e-20)
(9.98496 -0.0171567 1.7243e-20)
(9.98193 -0.0186925 -1.86338e-20)
(9.97733 -0.0195058 -4.02609e-21)
(9.9734 -0.0255087 1.33664e-20)
(9.9678 -0.0281814 -1.4725e-20)
(9.96246 -0.0371827 5.37454e-21)
(9.95567 -0.0384039 -2.3484e-20)
(9.94906 -0.0459893 6.38229e-21)
(9.941 -0.044188 -6.9826e-21)
(9.93321 -0.0502246 -2.36543e-20)
(9.92365 -0.0464525 -2.00924e-23)
(9.91456 -0.0526734 2.61556e-22)
(9.90213 -0.0482802 1.08474e-20)
(9.89205 -0.056156 -2.38055e-20)
(9.87673 -0.0521208 4.00567e-20)
(9.86478 -0.0631851 -2.24746e-20)
(9.8453 -0.0600818 -6.00585e-22)
(9.83213 -0.0749626 1.80487e-20)
(9.81131 -0.071796 -8.07558e-22)
(9.79284 -0.0896126 -1.02584e-21)
(9.76541 -0.0866611 1.35773e-20)
(9.74578 -0.109133 6.76178e-22)
(9.71305 -0.104418 1.89613e-20)
(9.68713 -0.131474 -3.95681e-20)
(9.64863 -0.124853 2.39963e-20)
(9.618 -0.153105 -6.74033e-20)
(9.56263 -0.155622 1.49682e-20)
(9.52887 -0.165941 -1.78658e-20)
(9.46325 -0.190227 2.12833e-21)
(9.40692 -0.206377 5.28208e-20)
(9.33523 -0.196326 -5.71373e-20)
(9.26186 -0.263622 -1.41561e-19)
(9.15769 -0.236364 6.00957e-20)
(9.06343 -0.308208 -9.98659e-20)
(8.93361 -0.27534 2.15518e-19)
(8.808 -0.37679 -7.17457e-20)
(8.61421 -0.333156 -1.43693e-19)
(8.44981 -0.456578 -1.33144e-19)
(8.18252 -0.435316 2.87496e-19)
(7.94731 -0.496514 -1.74913e-19)
(7.60269 -0.65997 1.86365e-20)
(9.99992 0.00140153 0)
(9.99967 0.000358675 0)
(9.99889 -0.00539345 0)
(9.99722 -0.0119987 -8.09613e-21)
(9.99544 -0.0154275 0)
(9.99323 -0.0164839 0)
(9.99132 -0.0153139 0)
(9.98875 -0.0118976 0)
(9.9854 -0.00640741 0)
(9.98198 -0.00435169 0)
(9.97823 -0.00288133 7.14169e-21)
(9.97386 -0.00341803 0)
(9.96938 -0.00772377 0)
(9.96357 -0.0104341 0)
(9.95771 -0.0158068 0)
(9.95047 -0.0180008 0)
(9.94303 -0.0208735 0)
(9.93455 -0.0220447 1.36423e-20)
(9.92559 -0.0211783 0)
(9.91574 -0.0203449 0)
(9.90522 -0.0170918 0)
(9.89322 -0.018132 0)
(9.88136 -0.0172126 0)
(9.86693 -0.012745 0)
(9.85164 -0.0111468 -1.43529e-20)
(9.83658 -0.0216707 0)
(9.81737 -0.0253545 0)
(9.79466 -0.0143543 0)
(9.77773 -0.02209 0)
(9.74932 -0.0345982 0)
(9.72651 -0.0292405 0)
(9.69545 -0.0386426 0)
(9.66575 -0.0522429 0)
(9.62753 -0.0332603 0)
(9.58758 -0.0528417 2.61657e-20)
(9.54642 -0.0612789 3.03553e-20)
(9.49028 -0.0377047 -3.52392e-20)
(9.43896 -0.0762554 0)
(9.36981 -0.0609712 0)
(9.30192 -0.0711096 0)
(9.22548 -0.0840611 0)
(9.11639 -0.0554687 4.14739e-20)
(9.02536 -0.0997453 0)
(8.89365 -0.0949128 -6.07746e-20)
(8.74923 -0.0449072 0)
(8.57817 -0.15099 9.12654e-20)
(8.39266 -0.0562938 0)
(8.13447 -0.132368 0)
(7.90999 -0.160211 0)
(7.53318 -0.011382 0)
(10 0.0024234 -1.85558e-22)
(9.99962 0.00233968 1.99336e-22)
(9.99916 -0.000816195 -1.33625e-20)
(9.99757 -0.0055545 2.9819e-21)
(9.99565 -0.00779354 1.02615e-21)
(9.9934 -0.00785384 0)
(9.99166 -0.00549909 -1.2088e-21)
(9.98885 -0.000315804 1.30311e-21)
(9.98571 0.00670199 -1.09376e-20)
(9.98256 0.00938956 1.18921e-20)
(9.97846 0.0127483 -1.98206e-20)
(9.97457 0.0111915 3.65265e-21)
(9.96979 0.0119098 1.94037e-20)
(9.96445 0.00714061 -2.11541e-20)
(9.9587 0.00780761 -4.86155e-21)
(9.95112 0.00286272 5.8071e-21)
(9.94467 0.00656254 -1.15314e-20)
(9.93518 0.003526 -1.38681e-22)
(9.9276 0.0102179 -2.05563e-20)
(9.91674 0.00828494 -2.29418e-20)
(9.90738 0.0171631 -2.32722e-22)
(9.89523 0.0151584 2.79894e-20)
(9.88313 0.0254821 -2.05062e-20)
(9.86897 0.0215871 1.06598e-20)
(9.85512 0.031786 3.39487e-20)
(9.83916 0.0252108 5.27539e-22)
(9.82168 0.0359921 1.67574e-20)
(9.79972 0.0287868 7.41767e-22)
(9.7823 0.0378823 8.7456e-22)
(9.758 0.0284466 -4.72796e-20)
(9.73106 0.0448549 -1.43975e-20)
(9.70121 0.0310821 -1.72378e-20)
(9.67306 0.0486946 3.59434e-20)
(9.63095 0.0377668 -2.18378e-20)
(9.59995 0.0551381 3.64787e-20)
(9.54933 0.0507019 -4.25075e-20)
(9.50142 0.0658935 -1.40769e-20)
(9.45447 0.063342 -7.72808e-20)
(9.37928 0.0876173 4.02844e-20)
(9.31239 0.0698857 5.26164e-20)
(9.23727 0.124187 6.49151e-21)
(9.13386 0.085598 -9.49396e-20)
(9.03539 0.155196 -8.9213e-20)
(8.90868 0.113025 7.77761e-20)
(8.77413 0.207954 6.71068e-20)
(8.60199 0.143661 4.6898e-20)
(8.41647 0.262331 1.26903e-19)
(8.1791 0.208706 -5.4061e-19)
(7.90913 0.292428 1.66773e-19)
(7.58329 0.326391 -4.61874e-19)
(10.0004 0.00307306 0)
(9.99978 0.00388452 0)
(9.99959 0.00285156 1.3283e-20)
(9.99831 0.000176221 1.74565e-21)
(9.99658 -0.00100771 -1.88185e-21)
(9.99465 -0.000337566 0)
(9.99329 0.0028573 0)
(9.99061 0.00944358 2.41943e-21)
(9.98822 0.0173631 3.04616e-21)
(9.98526 0.0209801 -6.20205e-21)
(9.98222 0.0250827 -1.69704e-20)
(9.97828 0.0246718 6.70944e-21)
(9.97481 0.0262462 -1.53662e-20)
(9.96987 0.0245952 1.6806e-20)
(9.96484 0.0250989 7.88016e-21)
(9.95911 0.0234235 3.79877e-20)
(9.95342 0.027531 0)
(9.94361 0.0264529 1.17845e-20)
(9.93867 0.0339999 -2.34686e-20)
(9.92762 0.0345034 -1.18457e-20)
(9.92046 0.0459365 0)
(9.90831 0.0466743 -1.83526e-20)
(9.89897 0.0593893 4.00671e-20)
(9.88511 0.0583942 -6.60929e-20)
(9.87303 0.0698285 4.63793e-20)
(9.85823 0.0714387 -2.74717e-20)
(9.84074 0.0727257 1.37566e-20)
(9.82572 0.0893664 3.17555e-20)
(9.80434 0.0874361 -3.58346e-20)
(9.78409 0.0881586 -3.94836e-20)
(9.76302 0.110036 2.41461e-20)
(9.73147 0.102974 5.22769e-20)
(9.70944 0.1251 -5.97469e-20)
(9.67371 0.119999 0)
(9.64484 0.147566 0)
(9.59547 0.15501 4.6036e-20)
(9.56019 0.160956 3.77093e-20)
(9.51149 0.200444 -2.96523e-20)
(9.44147 0.194858 -1.26726e-19)
(9.39318 0.245043 9.22776e-20)
(9.31208 0.248898 6.0518e-20)
(9.22056 0.302275 1.43226e-19)
(9.14867 0.333382 -3.96462e-19)
(8.99855 0.367606 -2.05341e-19)
(8.90321 0.429494 1.18708e-19)
(8.72946 0.494768 -1.42022e-19)
(8.53979 0.566168 -3.83135e-19)
(8.34018 0.626115 3.2775e-19)
(8.06188 0.791064 -3.26849e-19)
(7.74005 0.817483 5.97742e-19)
(10.0008 0.00309791 6.13631e-22)
(10.0001 0.00484436 -6.66153e-22)
(9.99986 0.00486536 2.20244e-20)
(9.99915 0.00417768 -2.39121e-20)
(9.99773 0.00394887 -2.27232e-20)
(9.99646 0.00510263 -2.82262e-20)
(9.99558 0.00885286 3.71994e-23)
(9.99348 0.0163168 -4.35268e-21)
(9.992 0.0243216 -4.77394e-21)
(9.98987 0.0284333 5.13521e-21)
(9.98804 0.0332734 2.91941e-20)
(9.9848 0.0343835 -2.93165e-20)
(9.98268 0.0358729 0)
(9.97838 0.0375186 -2.0238e-20)
(9.97475 0.0371597 5.47571e-21)
(9.9694 0.0384456 -5.09447e-20)
(9.96562 0.0428779 -3.57204e-20)
(9.95676 0.0440157 2.99476e-20)
(9.95425 0.0515337 2.42529e-20)
(9.94347 0.0562964 1.42043e-20)
(9.93806 0.0659645 -1.40154e-20)
(9.92758 0.0727274 1.51483e-20)
(9.91913 0.0818948 3.17027e-20)
(9.9079 0.0849228 -3.49303e-20)
(9.89871 0.100295 -2.23388e-20)
(9.88286 0.101718 -4.32576e-20)
(9.87145 0.108785 0)
(9.85486 0.117772 -7.35049e-21)
(9.83889 0.124256 6.77009e-20)
(9.81886 0.128765 3.99913e-20)
(9.80146 0.150331 0)
(9.77161 0.147559 -4.63258e-20)
(9.75417 0.171651 6.07138e-21)
(9.71958 0.171672 7.40217e-21)
(9.69339 0.205196 -1.4269e-19)
(9.65465 0.220431 3.51406e-20)
(9.61198 0.224967 5.21991e-20)
(9.57746 0.278954 0)
(9.5129 0.280287 -1.27876e-19)
(9.46921 0.336544 2.27004e-19)
(9.38561 0.339269 -1.72801e-19)
(9.3291 0.424591 -9.927e-20)
(9.22418 0.429089 -1.14599e-19)
(9.13855 0.530051 3.38961e-19)
(9.00287 0.540609 1.80919e-19)
(8.88771 0.686461 3.62084e-19)
(8.68792 0.70558 -1.63438e-19)
(8.52312 0.850555 1.61196e-19)
(8.24464 0.994572 2.77922e-19)
(7.97296 1.07357 -3.62223e-19)
(10.001 0.00257418 5.52703e-22)
(10.0006 0.00482262 6.15239e-22)
(10.0004 0.00575083 -3.26325e-21)
(9.9999 0.00587854 4.8757e-20)
(9.99921 0.00637157 -7.84788e-22)
(9.99818 0.00784147 -8.91232e-22)
(9.99809 0.0121791 3.50727e-20)
(9.99627 0.0196905 2.23811e-20)
(9.99628 0.027634 1.28951e-20)
(9.99458 0.0322618 -9.27168e-21)
(9.99414 0.0372879 0)
(9.99193 0.0391736 4.40424e-20)
(9.99109 0.0424326 2.2702e-20)
(9.98792 0.0438415 5.19942e-20)
(9.98654 0.0467177 -2.97119e-20)
(9.98211 0.0475451 6.1231e-20)
(9.98051 0.0519664 3.5399e-20)
(9.97485 0.0538503 -1.94195e-20)
(9.97101 0.0602471 -2.01617e-20)
(9.9663 0.0706671 2.17602e-20)
(9.96 0.0759384 0)
(9.95423 0.0868555 -2.67322e-20)
(9.94738 0.0977265 -2.48383e-21)
(9.93798 0.103029 6.68297e-20)
(9.93446 0.118767 -6.75986e-20)
(9.91947 0.123095 4.27201e-20)
(9.91381 0.137964 4.01601e-20)
(9.89764 0.142258 -1.02337e-19)
(9.89105 0.159418 5.34229e-20)
(9.86973 0.164722 3.07146e-20)
(9.86117 0.188053 -1.29561e-19)
(9.83697 0.193887 8.03348e-20)
(9.82345 0.218695 -4.44296e-20)
(9.79586 0.229535 1.54266e-19)
(9.76973 0.262947 -4.83994e-21)
(9.74772 0.279482 0)
(9.70883 0.308313 0)
(9.66995 0.351194 1.30362e-20)
(9.63673 0.374933 -5.73552e-20)
(9.59074 0.439006 1.52617e-19)
(9.52231 0.466673 8.11777e-20)
(9.4803 0.555552 2.75014e-19)
(9.38823 0.588052 -8.02486e-20)
(9.3214 0.706183 0)
(9.19637 0.761603 -1.19241e-20)
(9.10565 0.923702 -2.33121e-19)
(8.92846 1.00884 0)
(8.78202 1.19972 3.26471e-19)
(8.52145 1.42296 5.33253e-20)
(8.28376 1.63364 -4.81949e-19)
(10.0009 0.00194156 0)
(10.0008 0.00388649 3.40784e-20)
(10.0011 0.00520465 1.69619e-20)
(10.0007 0.00580241 -1.91407e-20)
(10.0005 0.00676857 1.79742e-20)
(9.99972 0.00859444 5.20507e-20)
(9.99992 0.0132542 -2.22619e-21)
(9.99894 0.0202274 -3.01052e-20)
(9.99906 0.0273537 7.81065e-21)
(9.99879 0.0323318 -8.39965e-21)
(9.99863 0.0368433 0)
(9.99722 0.0395484 -5.86159e-20)
(9.99752 0.0433354 -1.17882e-20)
(9.99512 0.0448535 -3.59711e-20)
(9.99462 0.0484133 0)
(9.9912 0.0497885 -1.50691e-20)
(9.98952 0.0545921 1.36181e-22)
(9.98587 0.0579099 -3.21679e-20)
(9.98116 0.0661977 1.74308e-20)
(9.97916 0.0762529 0)
(9.97242 0.082594 2.10026e-20)
(9.96966 0.0954527 -2.26804e-20)
(9.96437 0.103091 0)
(9.9564 0.108646 -2.7366e-20)
(9.95411 0.122844 6.18982e-20)
(9.94215 0.127072 0)
(9.93916 0.140223 3.00031e-20)
(9.92582 0.143968 -3.91067e-20)
(9.92097 0.160409 4.01054e-20)
(9.90461 0.166465 4.92993e-20)
(9.89936 0.18697 -4.78317e-20)
(9.87828 0.193135 5.94503e-20)
(9.87166 0.217389 8.47083e-21)
(9.84494 0.230199 -7.5273e-20)
(9.83167 0.254545 -4.93208e-20)
(9.80454 0.274638 -4.31907e-20)
(9.78558 0.316308 0)
(9.7476 0.336441 7.51832e-20)
(9.71973 0.371573 -1.64016e-19)
(9.69033 0.435821 7.29483e-20)
(9.62942 0.461151 -9.90621e-20)
(9.60702 0.543032 1.00756e-19)
(9.51901 0.586258 0)
(9.48491 0.697047 -3.27276e-19)
(9.3706 0.775736 4.27985e-19)
(9.30095 0.896391 -5.13125e-19)
(9.16011 1.04191 -4.18767e-20)
(9.03477 1.18778 1.95402e-19)
(8.84696 1.48329 -7.60246e-20)
(8.61836 1.69872 6.08017e-19)
(10.0008 0.00122945 -2.94515e-20)
(10.0007 0.00272075 -3.39333e-20)
(10.0015 0.00393219 -3.68079e-20)
(10.0013 0.00479384 2.41456e-21)
(10.0017 0.00583807 -2.59183e-21)
(10.0014 0.00764557 -2.33217e-20)
(10.0022 0.0118539 -2.52029e-20)
(10.0023 0.0184209 -3.20175e-20)
(10.004 0.0244894 7.07369e-21)
(10.0044 0.0299219 7.67786e-21)
(10.0057 0.0341949 -8.25535e-21)
(10.0058 0.0375551 3.06496e-21)
(10.007 0.0418454 3.70698e-20)
(10.006 0.0445376 1.0439e-20)
(10.0073 0.0483185 -2.25364e-20)
(10.0048 0.0513828 2.42984e-20)
(10.006 0.0558829 -1.31024e-20)
(10.0024 0.0604748 1.30126e-20)
(10.0028 0.0674575 -7.59394e-23)
(10.001 0.079379 -8.72406e-23)
(9.99919 0.0859003 3.61261e-20)
(9.9987 0.0989153 -1.95752e-20)
(9.9926 0.108356 0)
(9.99319 0.118383 0)
(9.98451 0.131692 7.28759e-20)
(9.98102 0.139793 -3.651e-21)
(9.97674 0.154092 -5.86797e-20)
(9.96429 0.162414 3.27753e-20)
(9.96417 0.179207 -7.46909e-20)
(9.94886 0.189175 0)
(9.94751 0.209447 0)
(9.92871 0.221838 0)
(9.92445 0.242163 1.11678e-19)
(9.91162 0.267987 -5.93632e-21)
(9.88979 0.286992 0)
(9.88306 0.316072 4.18914e-20)
(9.86603 0.361599 -4.10911e-20)
(9.8339 0.387491 4.48799e-20)
(9.82465 0.436846 0)
(9.7961 0.492185 0)
(9.75175 0.545416 -6.87286e-20)
(9.7444 0.61834 5.8527e-20)
(9.67822 0.708785 -8.78156e-20)
(9.64656 0.794567 -5.49426e-20)
(9.58861 0.932691 -1.06258e-20)
(9.52439 1.05241 2.48599e-19)
(9.4271 1.25402 -1.25241e-19)
(9.33481 1.43264 -1.24657e-19)
(9.14782 1.75587 -2.1729e-19)
(9.02679 2.06413 -8.10169e-20)
(10.0004 0.000552788 2.92606e-20)
(10.0004 0.00122912 0)
(10.0011 0.00210684 -3.32377e-20)
(10.001 0.00280489 0)
(10.0016 0.00387146 0)
(10.001 0.00495954 0)
(10.0012 0.00693599 0)
(10.0012 0.0115017 2.51972e-20)
(10.0021 0.0170304 1.90022e-20)
(10.0032 0.02208 -1.33412e-20)
(10.0048 0.0269347 -3.70947e-20)
(10.0055 0.0296098 4.2183e-20)
(10.0081 0.0330213 -4.54726e-20)
(10.0079 0.035498 0)
(10.0107 0.038776 0)
(10.0091 0.0415865 0)
(10.0106 0.0452133 5.74083e-20)
(10.0092 0.048797 -8.88198e-20)
(10.0066 0.0539164 0)
(10.0086 0.0625115 -2.84877e-20)
(10.0038 0.0699361 0)
(10.0064 0.0801652 -1.55928e-20)
(10.0031 0.0898314 -3.73712e-20)
(10.0029 0.0987893 5.808e-20)
(10.0032 0.110713 -6.83173e-20)
(9.99803 0.117342 -7.06823e-20)
(10.0016 0.129707 5.44474e-20)
(9.99174 0.137778 -5.03778e-20)
(9.99497 0.151813 -5.37736e-20)
(9.98375 0.160053 -3.15198e-20)
(9.98469 0.176533 6.83719e-20)
(9.97692 0.190054 -7.40309e-20)
(9.96755 0.205963 8.02248e-20)
(9.96201 0.226692 -9.3317e-20)
(9.95148 0.248187 -6.42838e-21)
(9.93338 0.269215 1.01659e-19)
(9.94056 0.310041 -4.5414e-20)
(9.9128 0.334773 -6.01925e-20)
(9.91149 0.374707 0)
(9.89577 0.422414 0)
(9.86825 0.47741 -2.7715e-20)
(9.85576 0.533165 4.22833e-20)
(9.81747 0.632878 -2.92961e-20)
(9.78163 0.703895 -2.587e-20)
(9.75704 0.84244 5.68064e-20)
(9.70089 0.941133 -6.37142e-20)
(9.66308 1.15741 7.05711e-20)
(9.64817 1.34806 -1.41597e-20)
(9.5376 1.67492 -6.88422e-22)
(9.46757 2.07783 2.6917e-20)
(10.2047 0.00646156 0)
(10.198 -0.00971771 9.72372e-22)
(10.1969 -0.0067405 -3.55799e-20)
(10.1911 -0.0127624 2.11108e-20)
(10.1899 -0.0184378 -2.74872e-21)
(10.1879 -0.0197031 2.94861e-21)
(10.1856 -0.0263435 -1.11499e-20)
(10.1837 -0.0300162 -7.50439e-21)
(10.1833 -0.0335179 1.72411e-21)
(10.1803 -0.0384434 -1.74569e-20)
(10.1794 -0.0426083 -4.16883e-20)
(10.177 -0.0471049 -1.8708e-20)
(10.1756 -0.0516352 -6.32539e-21)
(10.1735 -0.0558968 0)
(10.1721 -0.0606463 0)
(10.1691 -0.064292 0)
(10.1679 -0.0686674 3.80203e-20)
(10.1656 -0.0711665 -4.25244e-20)
(10.1643 -0.0734379 1.25385e-20)
(10.1611 -0.0742033 -2.6046e-20)
(10.1588 -0.0749096 -3.06042e-20)
(10.1561 -0.0754606 -3.37404e-20)
(10.1535 -0.0742655 3.77987e-20)
(10.1512 -0.0730523 6.30792e-20)
(10.1474 -0.0706424 -2.3395e-20)
(10.1447 -0.0688741 -2.48089e-20)
(10.1418 -0.0646749 0)
(10.1413 -0.0603153 -6.20402e-20)
(10.1416 -0.0561526 3.53928e-20)
(10.1394 -0.053787 3.98819e-20)
(10.1338 -0.0516719 -4.32281e-22)
(10.1256 -0.0493472 0)
(10.1064 -0.0456012 -5.52599e-20)
(10.0853 -0.0397812 6.00352e-20)
(10.045 -0.0199035 1.36813e-19)
(9.99707 0.0230502 -5.48379e-21)
(9.95232 0.0745565 -8.6168e-20)
(9.92382 0.144218 0)
(9.88942 0.260709 -2.47443e-21)
(9.90554 0.415348 4.0996e-20)
(9.91708 0.623104 -1.67375e-20)
(10.011 0.8577 0)
(10.121 1.07445 -2.08383e-20)
(10.3144 1.29083 -3.16056e-20)
(10.5697 1.46987 0)
(10.8583 1.7073 1.33519e-19)
(11.2001 1.93135 8.90616e-20)
(11.6975 1.98381 4.86467e-19)
(12.1586 1.97333 -2.59069e-19)
(12.7633 1.76007 6.56425e-19)
(10.1858 -0.000530019 1.8132e-20)
(10.1806 -0.00963239 1.99285e-20)
(10.1803 -0.0120531 1.95773e-20)
(10.1796 -0.0178931 -2.12524e-20)
(10.1781 -0.0226049 -1.39042e-20)
(10.1762 -0.0261591 0)
(10.1755 -0.0314593 1.46802e-20)
(10.1733 -0.0345247 0)
(10.1725 -0.03936 2.30564e-20)
(10.1704 -0.0425774 -5.29491e-21)
(10.1698 -0.0465645 2.23473e-20)
(10.1679 -0.0498242 2.48023e-20)
(10.1673 -0.0528666 -3.05582e-20)
(10.1656 -0.0555882 3.36887e-20)
(10.1645 -0.0578165 0)
(10.1626 -0.0597665 -9.98657e-21)
(10.1607 -0.0614784 1.0753e-20)
(10.1582 -0.0626174 0)
(10.157 -0.0635258 -1.35478e-20)
(10.1552 -0.0626784 -3.73182e-22)
(10.1542 -0.0621417 1.61418e-20)
(10.1527 -0.0608837 -3.6513e-20)
(10.1514 -0.0585787 2.00097e-20)
(10.148 -0.0578383 -4.33358e-20)
(10.1451 -0.0555 4.72174e-20)
(10.147 -0.0498254 -7.87265e-20)
(10.1513 -0.0438742 2.93522e-20)
(10.1521 -0.0387359 -3.17718e-20)
(10.1455 -0.0352693 0)
(10.1416 -0.0328951 -3.93262e-20)
(10.1297 -0.0293586 -4.35796e-20)
(10.1105 -0.022584 4.64831e-20)
(10.0834 -0.0124586 -1.00619e-19)
(10.0607 0.0128145 5.46299e-20)
(10.0324 0.0583543 -5.41994e-20)
(10.0127 0.124587 -6.77596e-20)
(9.99955 0.206652 2.87572e-20)
(10.0109 0.325832 -2.83005e-20)
(9.99529 0.451532 -8.97562e-20)
(10.0453 0.592557 -1.19733e-20)
(10.1134 0.760446 -3.45945e-21)
(10.2488 0.915025 0)
(10.4188 1.056 2.39183e-20)
(10.6278 1.21594 2.59144e-20)
(10.8919 1.34478 1.6634e-19)
(11.1968 1.46788 -2.16529e-19)
(11.5005 1.53217 -3.43055e-19)
(11.9209 1.51305 0)
(12.308 1.50649 -2.54901e-19)
(12.703 1.43821 5.9909e-19)
(10.1754 0.00192938 -1.82284e-20)
(10.1715 -0.00817794 -3.21052e-20)
(10.1698 -0.00934524 -7.61669e-22)
(10.1656 -0.0128224 -1.72854e-21)
(10.1647 -0.020017 1.58404e-20)
(10.1627 -0.0205791 -2.09811e-21)
(10.1617 -0.026661 -5.6202e-23)
(10.1603 -0.0301078 -2.60069e-21)
(10.16 -0.0334591 2.88627e-20)
(10.1584 -0.037761 0)
(10.1583 -0.0409019 0)
(10.157 -0.0442582 -1.54062e-20)
(10.157 -0.0475358 3.08045e-20)
(10.1562 -0.0503003 -3.39716e-20)
(10.1564 -0.0529345 0)
(10.1556 -0.0548416 0)
(10.1557 -0.0563986 1.19202e-20)
(10.1553 -0.056614 -1.28411e-20)
(10.1556 -0.0572178 2.9068e-20)
(10.1548 -0.0565576 0)
(10.1551 -0.0559888 -3.47875e-20)
(10.1556 -0.0545337 3.70066e-20)
(10.1563 -0.0525606 -4.05798e-20)
(10.1559 -0.0512121 0)
(10.1573 -0.0468589 2.43577e-20)
(10.1601 -0.0420663 2.66955e-20)
(10.1649 -0.0380923 2.89574e-20)
(10.1636 -0.0312681 -6.23529e-20)
(10.1549 -0.0245333 0)
(10.1561 -0.0156434 -3.60429e-20)
(10.1479 4.0868e-05 -3.8675e-20)
(10.1408 0.0215246 0)
(10.1373 0.0481123 -2.28714e-20)
(10.1464 0.091112 2.48881e-20)
(10.1466 0.141424 5.54014e-20)
(10.1558 0.194964 -2.27826e-20)
(10.1699 0.256097 -5.80586e-21)
(10.2228 0.326473 2.24318e-20)
(10.2484 0.396435 1.04764e-20)
(10.3385 0.489662 3.80905e-20)
(10.4171 0.590363 -3.60532e-21)
(10.5242 0.688174 -1.98572e-20)
(10.6782 0.786921 -2.47682e-20)
(10.8653 0.907874 -5.7115e-20)
(11.0752 1.00332 -3.47089e-20)
(11.3318 1.10439 6.41329e-21)
(11.5437 1.13552 1.37427e-19)
(11.8875 1.21436 -3.60809e-19)
(12.2304 1.1809 2.23965e-19)
(12.6075 1.10168 0)
(10.1564 -0.00340991 -1.28858e-20)
(10.1521 -0.0074982 2.64689e-20)
(10.1524 -0.0145543 -9.12133e-22)
(10.1527 -0.0167825 1.79292e-20)
(10.1518 -0.0233324 1.8516e-20)
(10.1509 -0.0259102 -1.78073e-20)
(10.1509 -0.03064 -2.46185e-20)
(10.1498 -0.0335866 0)
(10.1501 -0.0376348 -2.35371e-20)
(10.149 -0.04007 0)
(10.1497 -0.0432395 -7.48563e-21)
(10.1493 -0.0454553 2.35603e-20)
(10.1502 -0.0474399 -1.85347e-20)
(10.1503 -0.0489277 0)
(10.1512 -0.0500554 0)
(10.1515 -0.0505565 0)
(10.1535 -0.0523953 0)
(10.1539 -0.0532216 -1.4199e-20)
(10.155 -0.0544816 -4.44452e-20)
(10.1554 -0.0539976 1.61751e-20)
(10.1573 -0.0533055 7.09326e-20)
(10.1591 -0.0517431 -3.9054e-20)
(10.1604 -0.0489125 0)
(10.1624 -0.0458244 2.78267e-22)
(10.168 -0.0389991 2.46249e-20)
(10.1698 -0.0314384 0)
(10.175 -0.0247535 1.44663e-20)
(10.1776 -0.0168395 4.6923e-20)
(10.1773 -0.00750891 -1.64537e-20)
(10.1832 0.00623996 3.65823e-20)
(10.1879 0.0208428 3.92839e-20)
(10.1917 0.0408347 1.93557e-20)
(10.2019 0.0637589 -2.10612e-20)
(10.2205 0.0983975 0)
(10.2281 0.132544 0)
(10.2538 0.167046 2.32734e-20)
(10.2718 0.223918 0)
(10.3301 0.287927 -1.96686e-20)
(10.3634 0.364716 -5.88983e-21)
(10.4676 0.458774 2.85971e-21)
(10.5599 0.537353 7.67485e-21)
(10.6768 0.623267 2.04673e-20)
(10.8503 0.705458 0)
(11.0194 0.775671 0)
(11.1987 0.811778 0)
(11.4575 0.828891 1.00602e-19)
(11.7012 0.793192 1.3578e-19)
(12.026 0.821856 -1.79136e-20)
(12.2612 0.760483 2.43963e-19)
(12.6248 0.821915 0)
(10.1435 -0.000759807 -2.0362e-21)
(10.1413 -0.00600511 -1.37983e-20)
(10.1398 -0.0116156 -5.16842e-22)
(10.1371 -0.0124015 -1.70131e-20)
(10.137 -0.0205936 -8.11264e-21)
(10.1361 -0.0211864 8.9094e-21)
(10.1361 -0.0270157 2.2139e-20)