/*--------------------------------*- C++ -*----------------------------------*\
| =========                 |                                                 |
| \\      /  F ield         | OpenFOAM: The Open Source CFD Toolbox           |
|  \\    /   O peration     | Version:  2.3.1                                 |
|   \\  /    A nd           | Web:      www.OpenFOAM.org                      |
|    \\/     M anipulation  |                                                 |
\*---------------------------------------------------------------------------*/
FoamFile
{
    version     2.0;
    format      ascii;
    class       volVectorField;
    location    "1000";
    object      ddt0(U);
}
// * * * * * * * * * * * * * * * * * * * * * * * * * * * * * * * * * * * * * //

dimensions      [0 1 -2 0 0 0 0];

internalField   nonuniform List<vector> 
66000
(
(-1.69162e-07 1.24323e-07 -3.2105e-22)
(-4.13615e-07 4.30391e-07 -1.3335e-24)
(-5.74492e-07 1.00702e-06 2.71775e-24)
(-8.18724e-07 1.93138e-06 -3.57322e-22)
(-1.22469e-06 3.19728e-06 0)
(-1.88714e-06 4.76091e-06 0)
(-2.7459e-06 6.78565e-06 3.73045e-22)
(-3.7806e-06 9.25029e-06 -3.91315e-22)
(-4.98885e-06 1.2134e-05 3.86036e-22)
(-6.38104e-06 1.54023e-05 1.22677e-23)
(-7.97286e-06 1.90018e-05 -3.99079e-22)
(-9.767e-06 2.28693e-05 -1.21062e-23)
(-1.17546e-05 2.69396e-05 1.29308e-23)
(-1.39274e-05 3.11472e-05 -4.21401e-22)
(-1.6279e-05 3.54262e-05 -4.41695e-22)
(-1.88024e-05 3.97113e-05 -4.5036e-22)
(-2.14911e-05 4.3935e-05 5.00144e-22)
(-2.43387e-05 4.80263e-05 4.24349e-22)
(-2.73359e-05 5.19115e-05 4.60815e-22)
(-3.04705e-05 5.55169e-05 -4.68344e-22)
(-3.37287e-05 5.87723e-05 -4.47871e-22)
(-3.70951e-05 6.16147e-05 4.55244e-22)
(-4.05529e-05 6.39899e-05 3.09633e-23)
(-4.40838e-05 6.58531e-05 4.72993e-22)
(-4.767e-05 6.71686e-05 -5.13824e-22)
(-5.12954e-05 6.79087e-05 -1.01313e-21)
(-5.49452e-05 6.80537e-05 -3.3292e-23)
(-5.86048e-05 6.75908e-05 5.76838e-22)
(-6.22594e-05 6.65146e-05 -3.45344e-23)
(-6.58944e-05 6.48263e-05 1.12557e-21)
(-6.94966e-05 6.25335e-05 5.72781e-22)
(-7.30551e-05 5.96499e-05 0)
(-7.65606e-05 5.61937e-05 -5.58266e-22)
(-8.00044e-05 5.21878e-05 -3.78699e-23)
(-8.33777e-05 4.76589e-05 0)
(-8.6672e-05 4.26377e-05 3.14369e-22)
(-8.988e-05 3.71589e-05 -3.60453e-22)
(-9.29961e-05 3.12616e-05 -2.85627e-22)
(-9.60165e-05 2.49893e-05 0)
(-9.8939e-05 1.83898e-05 3.82245e-22)
(-0.000101763 1.1514e-05 2.59836e-22)
(-0.000104488 4.41514e-06 3.52954e-22)
(-0.000107116 -2.85288e-06 8.98664e-23)
(-0.000109651 -1.02365e-05 -7.78645e-22)
(-0.000112099 -1.76835e-05 -3.74037e-22)
(-0.000114466 -2.51435e-05 7.61886e-22)
(-0.000116762 -3.25684e-05 0)
(-0.000118997 -3.99119e-05 0)
(-0.000121183 -4.71295e-05 5.05477e-23)
(-0.000123331 -5.41783e-05 -8.75667e-22)
(-0.000125457 -6.10162e-05 -4.72515e-22)
(-0.000127572 -6.76019e-05 5.35416e-23)
(-0.000129693 -7.38948e-05 0)
(-0.000131834 -7.9855e-05 -8.13291e-25)
(-0.000134009 -8.54435e-05 -5.12419e-22)
(-0.000136234 -9.06225e-05 5.22996e-22)
(-0.000138523 -9.53558e-05 0)
(-0.000140894 -9.96092e-05 -9.70444e-22)
(-0.000143363 -0.000103351 6.20409e-23)
(-0.000145948 -0.000106553 4.42876e-22)
(-0.000148666 -0.000109191 -1.09951e-21)
(-0.000151535 -0.000111242 6.59576e-23)
(-0.000154575 -0.000112691 -5.4007e-22)
(-0.000157802 -0.000113525 6.21222e-22)
(-0.000161235 -0.000113735 4.9399e-22)
(-0.000164891 -0.000113319 5.77161e-22)
(-0.000168786 -0.000112276 0)
(-0.000172938 -0.000110613 -7.56359e-23)
(-0.000177361 -0.000108339 7.70405e-23)
(-0.00018207 -0.000105467 6.32415e-22)
(-0.000187082 -0.000102015 -6.47282e-22)
(-0.000192409 -9.80037e-05 -8.30231e-23)
(-0.000198066 -9.34578e-05 1.69608e-22)
(-0.000204066 -8.84052e-05 6.96023e-22)
(-0.000210422 -8.28769e-05 -1.77994e-22)
(-0.000217147 -7.69063e-05 -6.39336e-22)
(-0.000224253 -7.05297e-05 -3.7424e-22)
(-0.000231751 -6.37853e-05 0)
(-0.000239651 -5.6713e-05 0)
(-0.000247965 -4.93543e-05 0)
(-0.000256703 -4.17518e-05 -4.13565e-22)
(-0.000265872 -3.39493e-05 -1.0646e-22)
(-0.000275483 -2.59908e-05 2.18094e-22)
(-0.000285542 -1.79209e-05 -1.1138e-22)
(-0.000296058 -9.7838e-06 0)
(-0.000307038 -1.6236e-06 0)
(-0.000318489 6.51623e-06 0)
(-0.000330419 1.4593e-05 3.73874e-22)
(-0.000342834 2.25649e-05 -1.16802e-24)
(-0.000355743 3.03919e-05 1.18712e-21)
(-0.000369153 3.80352e-05 0)
(-0.000383074 4.54583e-05 1.14409e-25)
(-0.000397514 5.26262e-05 1.44518e-22)
(-0.000412483 5.95064e-05 -1.47319e-22)
(-0.000427992 6.60687e-05 -1.53263e-22)
(-0.000444049 7.22852e-05 -4.71982e-22)
(-0.000460665 7.81313e-05 6.47791e-22)
(-0.000477854 8.35846e-05 6.66823e-22)
(-0.000495627 8.86257e-05 6.87179e-22)
(-0.000513998 9.32378e-05 0)
(-0.000532983 9.74074e-05 -7.30966e-22)
(-0.000552599 0.000101124 -1.50615e-21)
(-0.000572863 0.00010438 -1.95038e-22)
(-0.000593797 0.000107171 1.98889e-22)
(-0.000615421 0.000109495 6.18578e-22)
(-0.000637758 0.000111352 1.06284e-21)
(-0.00066083 0.000112748 0)
(-0.000684662 0.000113688 -2.27019e-22)
(-0.00070928 0.000114184 2.31556e-22)
(-0.000734713 0.000114246 -2.41173e-22)
(-0.000760989 0.000113892 -1.73464e-21)
(-0.000788142 0.00011314 0)
(-0.000816202 0.000112011 -2.50793e-24)
(-0.000845206 0.000110532 0)
(-0.000875192 0.000108732 -1.11973e-21)
(-0.000906201 0.000106644 0)
(-0.000938274 0.000104302 0)
(-0.000971451 0.000101746 -1.22541e-21)
(-0.00100578 9.90168e-05 1.26436e-21)
(-0.0010413 9.61579e-05 6.52469e-22)
(-0.00107805 9.32148e-05 2.0245e-21)
(-0.00111608 9.02352e-05 -2.00406e-24)
(-0.00115543 8.72695e-05 0)
(-0.00119614 8.43706e-05 3.71697e-22)
(-0.00123826 8.15923e-05 5.13682e-24)
(-0.00128184 7.89898e-05 -1.98875e-21)
(-0.0013269 7.6622e-05 8.26439e-22)
(-0.0013735 7.4552e-05 -8.55892e-22)
(-0.00142169 7.28485e-05 -8.828e-22)
(-0.00147151 7.15739e-05 0)
(-0.00152303 7.08114e-05 9.52109e-22)
(-0.00157632 7.05932e-05 0)
(-0.00163145 7.10845e-05 0)
(-0.00168855 7.21957e-05 0)
(-0.00174754 7.39111e-05 0)
(-0.00181053 7.73828e-05 0)
(-0.00187129 7.56564e-05 2.35212e-21)
(-0.00194996 9.38414e-05 1.23875e-21)
(-0.00202436 0.000108835 1.27794e-21)
(-0.00209761 0.000120312 -6.67265e-22)
(-0.00217172 0.000130662 6.81779e-22)
(-0.00224739 0.000141666 2.14657e-21)
(-0.00232542 0.000154237 7.4363e-22)
(-0.00240638 0.000168758 -1.5388e-21)
(-0.00249048 0.000185389 1.5976e-21)
(-0.00257779 0.000204244 1.6509e-21)
(-0.00266834 0.000225456 -8.57875e-22)
(-0.00276218 0.000249185 -8.84737e-22)
(-0.00285937 0.000275611 1.86037e-21)
(-0.00296 0.000304923 2.41877e-21)
(-0.00306414 0.000337318 -4.96326e-22)
(-0.00317188 0.000372998 2.07468e-21)
(-0.00328335 0.000412174 0)
(-0.00339865 0.000455064 0)
(-0.00351793 0.000501895 5.90371e-22)
(-0.00364131 0.000552907 -2.41815e-21)
(-0.00376895 0.000608351 -1.26847e-21)
(-0.00390097 0.0006685 3.28709e-21)
(-0.00403752 0.000733645 -6.72963e-22)
(-0.00417877 0.000804103 -2.14558e-21)
(-0.00432487 0.000880222 7.53966e-22)
(-0.00447603 0.000962374 -7.7157e-22)
(-0.0046324 0.00105095 1.6162e-21)
(-0.00479418 0.00114635 4.25708e-21)
(-0.00496148 0.00124898 1.79116e-21)
(-0.00513444 0.00135926 -1.84271e-21)
(-0.00531318 0.00147764 1.91329e-21)
(-0.00549784 0.00160456 -9.45313e-24)
(-0.00568864 0.00174054 1.04718e-21)
(-0.00588588 0.00188612 -3.27193e-21)
(-0.00608989 0.00204193 1.14761e-23)
(-0.00630099 0.00220864 1.18335e-21)
(-0.00651937 0.00238703 0)
(-0.00674517 0.00257779 1.27733e-21)
(-0.00697865 0.00278166 -2.75043e-21)
(-0.00722024 0.00299942 4.26577e-21)
(-0.00747044 0.003232 4.50599e-21)
(-0.00772961 0.00348046 -1.55715e-21)
(-0.00799809 0.003746 3.32978e-21)
(-0.00827632 0.0040299 8.8074e-22)
(-0.00856483 0.0043335 -9.01725e-22)
(-0.0088641 0.00465823 -5.3537e-23)
(-0.00917462 0.00500574 0)
(-0.00949703 0.00537779 -1.14748e-21)
(-0.00983214 0.0057764 -3.43644e-21)
(-0.0101807 0.00620381 -1.21568e-21)
(-0.0105436 0.00666267 4.97568e-21)
(-0.0109219 0.00715612 1.31872e-21)
(-0.0113164 0.00768708 -5.67183e-21)
(-0.0117288 0.00826011 0)
(-0.01216 0.00887924 1.14052e-22)
(-0.0126127 0.0095521 0)
(-0.0130908 0.010289 -9.55802e-21)
(-0.0136032 0.0111085 7.95045e-21)
(-0.0141388 0.012028 1.32184e-20)
(-0.0146386 0.0129718 -2.33722e-21)
(-0.0147327 0.0136775 -1.37135e-21)
(-0.0141041 0.0135885 -1.1471e-20)
(-0.0115008 0.0115303 1.37214e-20)
(-0.00552351 0.00554397 -2.47654e-20)
(-3.18696e-07 2.60311e-07 -3.20252e-22)
(-7.16313e-07 1.26069e-06 -2.66371e-24)
(-9.29645e-07 2.71476e-06 -1.68563e-27)
(-1.20902e-06 4.769e-06 8.28428e-24)
(-1.80188e-06 7.25527e-06 -3.65095e-22)
(-2.75129e-06 1.03748e-05 -5.72496e-24)
(-3.93269e-06 1.38513e-05 5.81999e-24)
(-5.29548e-06 1.76721e-05 0)
(-6.8487e-06 2.18151e-05 3.85255e-22)
(-8.62135e-06 2.62333e-05 0)
(-1.06254e-05 3.08613e-05 9.70938e-25)
(-1.28476e-05 3.56285e-05 3.9444e-22)
(-1.52663e-05 4.0464e-05 1.2933e-23)
(-1.78688e-05 4.53002e-05 0)
(-2.06487e-05 5.00705e-05 4.16024e-22)
(-2.35973e-05 5.47046e-05 4.35989e-22)
(-2.67018e-05 5.91274e-05 -1.38984e-23)
(-2.99478e-05 6.32612e-05 2.82739e-23)
(-3.33183e-05 6.70303e-05 0)
(-3.67936e-05 7.03644e-05 4.69742e-22)
(-4.03538e-05 7.32021e-05 0)
(-4.39808e-05 7.54924e-05 -4.87094e-22)
(-4.76582e-05 7.71951e-05 0)
(-5.13695e-05 7.82796e-05 -3.15454e-23)
(-5.50981e-05 7.87233e-05 3.21052e-23)
(-5.88275e-05 7.85114e-05 5.24085e-22)
(-6.25435e-05 7.76363e-05 -3.3332e-23)
(-6.6234e-05 7.60978e-05 -2.45454e-26)
(-6.98881e-05 7.39036e-05 -5.17693e-22)
(-7.3495e-05 7.10676e-05 -5.28871e-22)
(-7.70428e-05 6.76093e-05 -6.10514e-22)
(-8.05202e-05 6.35529e-05 3.65693e-23)
(-8.3918e-05 5.89268e-05 -3.72268e-23)
(-8.72293e-05 5.3763e-05 -3.79727e-23)
(-9.04489e-05 4.80972e-05 -4.00926e-26)
(-9.35729e-05 4.19689e-05 -5.51665e-22)
(-9.65975e-05 3.54212e-05 3.21757e-22)
(-9.952e-05 2.85012e-05 2.86999e-22)
(-0.00010234 2.12601e-05 0)
(-0.000105058 1.37522e-05 0)
(-0.000107679 6.0342e-06 0)
(-0.000110207 -1.83637e-06 0)
(-0.000112648 -9.80248e-06 0)
(-0.000115011 -1.78086e-05 3.22307e-22)
(-0.000117303 -2.58012e-05 4.68681e-23)
(-0.000119533 -3.37296e-05 -4.31094e-22)
(-0.000121712 -4.1545e-05 4.87703e-23)
(-0.000123853 -4.92011e-05 0)
(-0.000125969 -5.66532e-05 4.56829e-22)
(-0.000128073 -6.38583e-05 3.63486e-22)
(-0.000130181 -7.07742e-05 4.23838e-22)
(-0.000132306 -7.736e-05 4.31681e-22)
(-0.000134464 -8.35754e-05 -5.52352e-23)
(-0.000136672 -8.93811e-05 -3.38255e-22)
(-0.000138945 -9.47392e-05 4.03043e-22)
(-0.000141303 -9.96135e-05 -4.70375e-22)
(-0.000143762 -0.00010397 0)
(-0.000146341 -0.000107779 9.81581e-22)
(-0.000149059 -0.000111012 0)
(-0.000151934 -0.000113645 -1.02553e-21)
(-0.000154985 -0.00011566 1.11409e-21)
(-0.00015823 -0.000117039 4.68973e-22)
(-0.000161684 -0.000117773 1.09627e-21)
(-0.000165366 -0.000117853 -4.90463e-22)
(-0.000169291 -0.000117277 -5.7319e-22)
(-0.000173474 -0.000116047 -7.33362e-22)
(-0.000177929 -0.000114168 7.48894e-23)
(-0.00018267 -0.00011165 7.70026e-23)
(-0.000187709 -0.000108508 3.78908e-25)
(-0.000193061 -0.00010476 -1.61083e-22)
(-0.000198735 -0.000100428 -4.26612e-25)
(-0.000204745 -9.5539e-05 -5.07776e-22)
(-0.000211101 -9.01211e-05 -1.73153e-22)
(-0.000217814 -8.4207e-05 9.01644e-23)
(-0.000224896 -7.78319e-05 9.11788e-23)
(-0.000232356 -7.1033e-05 5.58283e-22)
(-0.000240205 -6.385e-05 4.76938e-22)
(-0.000248451 -5.63238e-05 9.82546e-23)
(-0.000257104 -4.84968e-05 -1.00133e-22)
(-0.000266172 -4.04125e-05 -1.03376e-22)
(-0.000275663 -3.21148e-05 2.11429e-22)
(-0.000285587 -2.36483e-05 -1.08107e-22)
(-0.00029595 -1.50574e-05 -5.56718e-22)
(-0.00030676 -6.3868e-06 1.13924e-22)
(-0.000318024 2.31949e-06 0)
(-0.000329749 1.1018e-05 4.83586e-22)
(-0.000341943 1.96664e-05 0)
(-0.000354613 2.82233e-05 -1.02031e-21)
(-0.000367768 3.66489e-05 5.25204e-22)
(-0.000381416 4.49051e-05 -5.38908e-22)
(-0.000395566 5.29557e-05 -5.5556e-22)
(-0.000410227 6.07665e-05 5.7057e-22)
(-0.00042541 6.8306e-05 5.88192e-22)
(-0.000441127 7.5545e-05 -1.51968e-22)
(-0.000457389 8.24571e-05 1.54925e-22)
(-0.000474207 8.90184e-05 8.02408e-22)
(-0.000491594 9.52076e-05 -9.91506e-22)
(-0.000509563 0.000101007 -3.40223e-22)
(-0.00052813 0.0001064 -8.75829e-22)
(-0.00054731 0.000111374 -1.81734e-22)
(-0.000567119 0.000115921 1.85311e-22)
(-0.000587576 0.000120032 -3.18487e-25)
(-0.000608699 0.000123704 1.99079e-22)
(-0.000630512 0.000126936 -2.03022e-22)
(-0.000653035 0.000129731 0)
(-0.000676294 0.000132094 0)
(-0.000700314 0.000134033 0)
(-0.000725119 0.000135559 0)
(-0.000750739 0.000136687 0)
(-0.000777201 0.000137433 -2.46217e-22)
(-0.000804539 0.000137819 1.26083e-21)
(-0.000832784 0.000137867 2.61628e-22)
(-0.000861969 0.000137605 -1.60943e-21)
(-0.000892129 0.000137063 -8.32526e-22)
(-0.000923301 0.000136274 1.14234e-21)
(-0.000955526 0.000135275 0)
(-0.000988845 0.000134105 0)
(-0.0010233 0.000132808 1.25057e-21)
(-0.00105893 0.000131429 -1.29026e-21)
(-0.00109578 0.000130015 -6.65798e-22)
(-0.00113391 0.000128617 -1.37619e-21)
(-0.00117334 0.000127286 -1.06391e-21)
(-0.00121414 0.000126076 -3.64621e-22)
(-0.00125632 0.000125041 -7.58203e-22)
(-0.00129996 0.000124241 0)
(-0.00134507 0.000123734 8.11248e-22)
(-0.00139172 0.000123584 0)
(-0.00143994 0.000123855 0)
(-0.00148978 0.000124612 1.35359e-21)
(-0.0015413 0.000125924 -1.86362e-21)
(-0.00159454 0.000127858 4.79321e-22)
(-0.00164962 0.000130504 -9.99719e-22)
(-0.00170648 0.000133897 0)
(-0.00176554 0.000138192 5.4087e-22)
(-0.00182643 0.000143507 -5.52322e-22)
(-0.00188905 0.000149838 0)
(-0.00195663 0.000160019 -2.38908e-21)
(-0.00202396 0.000168741 0)
(-0.00208918 0.000176076 -6.47651e-22)
(-0.00215624 0.000184934 1.98936e-21)
(-0.00222707 0.000196687 0)
(-0.00230179 0.000211408 1.42932e-21)
(-0.00238012 0.000228741 -2.96652e-21)
(-0.0024618 0.000248408 7.75255e-22)
(-0.0025466 0.000270337 -7.92403e-22)
(-0.00263442 0.000294618 -3.31464e-21)
(-0.00272527 0.000321421 8.66649e-22)
(-0.00281925 0.000350937 -8.86018e-22)
(-0.00291645 0.000383356 1.38415e-21)
(-0.00301697 0.000418856 4.77796e-22)
(-0.00312086 0.000457616 -1.99754e-21)
(-0.00322823 0.000499821 -2.08619e-21)
(-0.00333915 0.000545663 0)
(-0.00345374 0.000595348 -5.67259e-22)
(-0.0035721 0.000649101 -2.3446e-21)
(-0.00369435 0.00070716 3.04707e-21)
(-0.00382064 0.000769783 0)
(-0.00395109 0.000837243 -2.64881e-21)
(-0.00408583 0.000909831 4.80596e-21)
(-0.00422499 0.000987861 2.15699e-21)
(-0.00436873 0.00107167 0)
(-0.00451717 0.00116161 0)
(-0.00467051 0.00125806 -2.42362e-21)
(-0.0048289 0.00136142 -8.36841e-22)
(-0.00499251 0.00147209 8.89261e-22)
(-0.00516151 0.0015905 -9.10413e-22)
(-0.00533602 0.00171705 0)
(-0.00551618 0.0018522 9.82567e-22)
(-0.00570212 0.00199641 1.0151e-21)
(-0.00589406 0.00215021 4.36761e-21)
(-0.00609223 0.00231422 -1.15199e-21)
(-0.00629688 0.0024891 1.1798e-21)
(-0.00650825 0.00267559 1.25916e-21)
(-0.00672659 0.00287435 -1.31754e-21)
(-0.00695218 0.00308612 1.4091e-21)
(-0.00718536 0.00331165 -1.44488e-21)
(-0.00742646 0.00355193 -3.49178e-23)
(-0.00767583 0.00380807 0)
(-0.00793388 0.00408127 3.27664e-21)
(-0.00820106 0.00437271 0)
(-0.00847784 0.00468366 9.2282e-22)
(-0.00876468 0.00501559 -9.96311e-22)
(-0.00906201 0.00537002 0)
(-0.0093703 0.00574865 -8.52162e-21)
(-0.00969028 0.0061535 -1.14373e-21)
(-0.0100226 0.00658685 1.17042e-21)
(-0.010368 0.00705125 -5.0822e-21)
(-0.0107276 0.00754961 0)
(-0.0111019 0.00808497 1.13979e-20)
(-0.0114925 0.00866146 1.55489e-21)
(-0.0119 0.00928331 6.63197e-21)
(-0.012327 0.00995762 5.21094e-21)
(-0.0127774 0.0106948 0)
(-0.0132571 0.0115104 -1.58077e-22)
(-0.0137516 0.0124119 -1.00427e-20)
(-0.0141896 0.0133094 1.16113e-21)
(-0.0142271 0.013925 1.03755e-20)
(-0.0135562 0.0137138 1.30335e-20)
(-0.0109985 0.0115488 -1.39065e-20)
(-0.00527557 0.00554464 1.24062e-20)
(-4.92887e-07 4.91537e-07 3.2176e-22)
(-8.87344e-07 2.03689e-06 -3.98874e-24)
(-9.79916e-07 4.14012e-06 -1.75946e-27)
(-1.11467e-06 6.74521e-06 2.75645e-24)
(-1.62619e-06 9.84475e-06 7.1868e-22)
(-2.5265e-06 1.33392e-05 3.71117e-22)
(-3.67416e-06 1.71998e-05 -5.82023e-24)
(-4.97407e-06 2.14154e-05 0)
(-6.42344e-06 2.59618e-05 -3.74603e-22)
(-8.07016e-06 3.07914e-05 -4.04852e-22)
(-9.95253e-06 3.58359e-05 4.00814e-22)
(-1.20739e-05 4.10178e-05 0)
(-1.44177e-05 4.62596e-05 -1.29697e-23)
(-1.697e-05 5.14864e-05 1.32006e-23)
(-1.97275e-05 5.66241e-05 -4.29408e-22)
(-2.26897e-05 6.15958e-05 -4.38546e-22)
(-2.58494e-05 6.63207e-05 0)
(-2.91908e-05 7.07171e-05 0)
(-3.26962e-05 7.47061e-05 0)
(-3.63484e-05 7.82155e-05 0)
(-4.01294e-05 8.11825e-05 -5.08656e-22)
(-4.40195e-05 8.35549e-05 5.18042e-22)
(-4.79979e-05 8.52921e-05 -4.96566e-22)
(-5.20449e-05 8.63639e-05 0)
(-5.61426e-05 8.67492e-05 -3.2282e-23)
(-6.02734e-05 8.64352e-05 3.2862e-23)
(-6.44188e-05 8.54162e-05 -5.68118e-22)
(-6.85603e-05 8.36945e-05 5.78735e-22)
(-7.26805e-05 8.128e-05 5.91782e-22)
(-7.67645e-05 7.81899e-05 2.4728e-22)
(-8.07991e-05 7.44478e-05 -3.61013e-23)
(-8.47714e-05 7.00815e-05 3.67531e-23)
(-8.86685e-05 6.51226e-05 2.99115e-22)
(-9.24785e-05 5.96059e-05 0)
(-9.61915e-05 5.35695e-05 3.89363e-23)
(-9.98007e-05 4.70561e-05 -3.84761e-23)
(-0.000103301 4.01126e-05 -3.22677e-22)
(-0.000106691 3.27906e-05 -3.28871e-22)
(-0.000109966 2.5146e-05 2.93189e-22)
(-0.000113127 1.72377e-05 4.27762e-23)
(-0.000116173 9.12692e-06 0)
(-0.000119107 8.75445e-07 4.45157e-23)
(-0.000121932 -7.45552e-06 3.16808e-22)
(-0.000124656 -1.58066e-05 4.62973e-23)
(-0.000127288 -2.41209e-05 -4.71433e-23)
(-0.000129837 -3.23448e-05 4.8173e-23)
(-0.000132315 -4.04274e-05 2.9379e-22)
(-0.000134734 -4.83204e-05 5.00472e-23)
(-0.000137108 -5.59775e-05 -4.09528e-22)
(-0.000139451 -6.3354e-05 -4.16484e-22)
(-0.000141779 -7.04061e-05 0)
(-0.000144106 -7.70909e-05 5.30949e-23)
(-0.000146448 -8.33665e-05 -4.43051e-22)
(-0.000148822 -8.91923e-05 1.58222e-25)
(-0.000151242 -9.45291e-05 -1.15751e-22)
(-0.000153727 -9.93399e-05 5.90328e-23)
(-0.000156294 -0.00010359 4.82851e-22)
(-0.000158962 -0.000107249 -4.94235e-22)
(-0.000161748 -0.000110288 5.04437e-22)
(-0.000164673 -0.000112684 5.16234e-22)
(-0.000167753 -0.000114417 -1.05494e-21)
(-0.000171008 -0.000115473 -5.39488e-22)
(-0.000174454 -0.00011584 -4.82542e-22)
(-0.00017811 -0.000115513 2.95101e-25)
(-0.000181991 -0.00011449 -7.19869e-23)
(-0.000186115 -0.000112774 5.16665e-22)
(-0.000190498 -0.000110373 1.51117e-22)
(-0.000195155 -0.000107301 5.41891e-22)
(-0.000200104 -0.000103573 0)
(-0.00020536 -9.92102e-05 7.30614e-22)
(-0.000210939 -9.42383e-05 -7.47966e-22)
(-0.000216857 -8.86856e-05 1.10605e-21)
(-0.000223128 -8.25839e-05 2.62151e-22)
(-0.000229768 -7.59678e-05 -7.13802e-22)
(-0.000236788 -6.88745e-05 4.58498e-22)
(-0.000244203 -6.13432e-05 5.62787e-25)
(-0.000252026 -5.34147e-05 5.91663e-25)
(-0.000260267 -4.51315e-05 2.96796e-22)
(-0.000268937 -3.6537e-05 1.01516e-22)
(-0.000278047 -2.76758e-05 4.16467e-22)
(-0.000287607 -1.85927e-05 -1.06135e-22)
(-0.000297626 -9.3329e-06 0)
(-0.000308113 5.83972e-08 1.12626e-22)
(-0.000319077 9.53626e-06 8.7675e-25)
(-0.000330524 1.90564e-05 -1.17882e-22)
(-0.000342463 2.85752e-05 -4.85401e-22)
(-0.000354901 3.80505e-05 0)
(-0.000367846 4.74415e-05 3.83812e-22)
(-0.000381304 5.67089e-05 1.32941e-22)
(-0.000395283 6.58155e-05 -5.43627e-22)
(-0.00040979 7.4726e-05 5.57761e-22)
(-0.000424834 8.34077e-05 0)
(-0.000440423 9.183e-05 -5.906e-22)
(-0.000456567 9.99652e-05 1.52881e-22)
(-0.000473274 0.000107788 6.28382e-22)
(-0.000490555 0.000115275 4.84917e-22)
(-0.000508419 0.000122407 6.64032e-22)
(-0.000526877 0.000129166 0)
(-0.000545943 0.000135538 -7.05366e-22)
(-0.000565629 0.00014151 1.82713e-22)
(-0.000585949 0.000147075 2.00706e-24)
(-0.000606918 0.000152226 -1.91947e-22)
(-0.000628553 0.00015696 -7.95719e-22)
(-0.000650871 0.000161278 -8.2023e-22)
(-0.000673894 0.000165183 0)
(-0.000697642 0.000168681 -1.09092e-21)
(-0.000722137 0.000171782 2.2363e-22)
(-0.000747405 0.000174499 0)
(-0.000773468 0.000176846 0)
(-0.000800354 0.000178842 9.8514e-22)
(-0.000828091 0.00018051 0)
(-0.000856709 0.000181875 -1.04782e-21)
(-0.000886239 0.000182965 -8.09125e-22)
(-0.000916712 0.000183812 8.36196e-22)
(-0.000948163 0.000184452 -1.14815e-21)
(-0.000980629 0.000184921 0)
(-0.00101415 0.000185261 -6.12072e-22)
(-0.00104876 0.000185516 -6.3152e-22)
(-0.00108452 0.000185731 -6.51632e-22)
(-0.00112145 0.000185954 -3.34662e-22)
(-0.00115961 0.000186238 -1.22053e-24)
(-0.00119904 0.000186634 1.07052e-21)
(-0.00123978 0.000187198 3.71779e-22)
(-0.00128189 0.000187986 4.60319e-24)
(-0.0013254 0.000189058 -7.89152e-22)
(-0.00137036 0.000190475 8.15862e-22)
(-0.00141681 0.000192303 -8.4382e-22)
(-0.00146481 0.000194605 1.67066e-25)
(-0.0015144 0.00019745 -4.48733e-22)
(-0.00156563 0.000200906 1.87047e-21)
(-0.00161858 0.000205049 -4.87752e-22)
(-0.00167327 0.000209949 1.50195e-21)
(-0.0017299 0.000215726 1.0376e-21)
(-0.00178839 0.000222359 0)
(-0.00184897 0.000230252 0)
(-0.00191207 0.000239636 -5.71479e-22)
(-0.00197633 0.000249536 1.20711e-21)
(-0.00204223 0.000261551 -1.85543e-21)
(-0.00211057 0.000275979 -1.93604e-21)
(-0.00218214 0.000292405 -6.7268e-22)
(-0.00225676 0.000310407 6.97074e-22)
(-0.00233384 0.000329762 -2.1483e-21)
(-0.00241307 0.000350544 1.48946e-21)
(-0.00249449 0.000373055 1.54196e-21)
(-0.00257831 0.000397658 -1.59961e-21)
(-0.00266479 0.000424666 1.66362e-21)
(-0.00275414 0.000454315 1.72184e-21)
(-0.00284652 0.000486792 4.50924e-22)
(-0.00294205 0.000522265 -4.17667e-21)
(-0.00304082 0.000560898 0)
(-0.0031429 0.000602869 2.00825e-21)
(-0.00324837 0.000648364 5.24992e-22)
(-0.00335731 0.00069758 1.62234e-21)
(-0.0034698 0.000750726 2.24497e-21)
(-0.00358594 0.000808026 4.09225e-21)
(-0.00370584 0.000869723 6.04197e-22)
(-0.00382961 0.000936074 6.39591e-22)
(-0.00395737 0.00100735 -6.54478e-22)
(-0.00408924 0.00108386 -2.06415e-21)
(-0.00422534 0.0011659 7.26433e-22)
(-0.00436579 0.00125381 0)
(-0.00451075 0.00134794 0)
(-0.00466034 0.00144866 1.62476e-21)
(-0.00481474 0.00155635 -1.67984e-21)
(-0.00497413 0.00167141 0)
(-0.00513868 0.00179424 9.26906e-22)
(-0.00530852 0.00192529 -9.49163e-22)
(-0.00548378 0.00206499 -2.00831e-21)
(-0.00566462 0.00221386 -2.09684e-21)
(-0.00585117 0.00237243 -2.18996e-21)
(-0.00604367 0.00254129 0)
(-0.00624229 0.00272106 0)
(-0.00644725 0.00291241 0)
(-0.00665878 0.003116 -2.61589e-21)
(-0.00687717 0.00333261 1.36055e-21)
(-0.00710273 0.00356309 -1.4566e-21)
(-0.00733577 0.00380843 1.47851e-21)
(-0.00757662 0.0040697 -3.87125e-21)
(-0.00782562 0.00434801 -8.22181e-21)
(-0.00808319 0.00464452 8.53158e-22)
(-0.00834978 0.00496051 0)
(-0.00862584 0.0052974 -3.84711e-21)
(-0.00891178 0.00565671 3.99942e-21)
(-0.00920797 0.00604017 5.35693e-21)
(-0.00951496 0.00644979 -4.41919e-21)
(-0.00983346 0.0068878 -1.16809e-21)
(-0.010164 0.00735666 0)
(-0.0105075 0.00785917 -5.29825e-21)
(-0.0108647 0.00839855 -9.90877e-21)
(-0.0112364 0.00897845 -1.48379e-21)
(-0.0116238 0.00960347 -1.66018e-21)
(-0.0120287 0.0102802 -5.3092e-21)
(-0.0124545 0.011019 0)
(-0.0129051 0.0118339 -8.14798e-21)
(-0.0133637 0.0127274 0)
(-0.0137572 0.0136046 -9.42074e-21)
(-0.0137597 0.0141747 -1.1883e-20)
(-0.0130718 0.0138921 -8.35059e-21)
(-0.0105643 0.0116362 -3.00905e-21)
(-0.00505758 0.00557435 3.0067e-21)
(-6.75379e-07 7.29317e-07 -3.19427e-22)
(-1.07403e-06 2.88686e-06 0)
(-1.07641e-06 5.62617e-06 0)
(-1.12822e-06 8.93081e-06 -3.51848e-22)
(-1.62915e-06 1.27433e-05 -7.17332e-22)
(-2.60794e-06 1.70132e-05 -3.65713e-22)
(-3.89185e-06 2.17062e-05 -5.80995e-24)
(-5.34789e-06 2.6793e-05 3.83729e-22)
(-6.96427e-06 3.22318e-05 0)
(-8.80674e-06 3.79588e-05 4.05182e-22)
(-1.09301e-05 4.38893e-05 3.86143e-22)
(-1.33353e-05 4.99282e-05 0)
(-1.59951e-05 5.598e-05 0)
(-1.88855e-05 6.19537e-05 1.3172e-23)
(-2.19938e-05 6.7762e-05 4.16409e-22)
(-2.53106e-05 7.33195e-05 0)
(-2.88221e-05 7.85419e-05 -1.39021e-23)
(-3.2507e-05 8.33454e-05 1.41505e-23)
(-3.63406e-05 8.76495e-05 -4.60184e-22)
(-4.02999e-05 9.13814e-05 -2.93597e-23)
(-4.43652e-05 9.44788e-05 5.09045e-22)
(-4.85171e-05 9.68921e-05 -9.74001e-22)
(-5.27344e-05 9.85837e-05 2.1577e-24)
(-5.69956e-05 9.95266e-05 0)
(-6.12811e-05 9.97034e-05 -3.21753e-23)
(-6.5574e-05 9.9106e-05 6.55278e-23)
(-6.98589e-05 9.77346e-05 7.34761e-22)
(-7.41193e-05 9.55973e-05 -5.1124e-22)
(-7.83379e-05 9.27102e-05 -2.76399e-22)
(-8.24975e-05 8.90965e-05 -2.82996e-22)
(-8.65833e-05 8.47858e-05 2.86976e-22)
(-9.05835e-05 7.98132e-05 2.92446e-22)
(-9.4489e-05 7.42178e-05 -2.99461e-22)
(-9.82919e-05 6.80416e-05 -3.03725e-22)
(-0.000101985 6.13298e-05 0)
(-0.000105561 5.4131e-05 -3.80245e-23)
(-0.000109017 4.64982e-05 3.63343e-22)
(-0.000112351 3.8489e-05 6.56957e-22)
(-0.000115563 3.01656e-05 -1.60267e-24)
(-0.000118656 2.15936e-05 0)
(-0.000121635 1.28406e-05 -4.35341e-23)
(-0.000124504 3.97451e-06 -6.19058e-26)
(-0.000127271 -4.9383e-06 -3.17403e-22)
(-0.000129946 -1.3834e-05 4.6169e-23)
(-0.000132539 -2.2652e-05 7.95643e-26)
(-0.000135062 -3.13358e-05 -4.79096e-22)
(-0.000137531 -3.98321e-05 4.72554e-23)
(-0.000139959 -4.80911e-05 3.48811e-22)
(-0.00014236 -5.60652e-05 5.09282e-23)
(-0.00014475 -6.37089e-05 4.17066e-22)
(-0.000147142 -7.09778e-05 -4.24167e-22)
(-0.000149553 -7.78288e-05 -5.57892e-23)
(-0.000151998 -8.42197e-05 5.54633e-22)
(-0.000154494 -9.01097e-05 1.77368e-25)
(-0.00015706 -9.54601e-05 1.90645e-25)
(-0.000159713 -0.000100235 -5.8991e-23)
(-0.000162473 -0.000104401 -4.83581e-22)
(-0.000165359 -0.000107929 0)
(-0.00016839 -0.000110793 -5.05216e-22)
(-0.000171586 -0.000112971 0)
(-0.000174965 -0.000114446 5.94185e-22)
(-0.000178546 -0.000115204 -6.06618e-22)
(-0.000182347 -0.000115236 0)
(-0.000186383 -0.000114538 -6.35306e-22)
(-0.000190672 -0.00011311 1.44541e-22)
(-0.000195229 -0.000110957 -6.65441e-22)
(-0.00020007 -0.000108088 7.59271e-23)
(-0.000205211 -0.000104516 -6.97462e-22)
(-0.000210665 -0.000100262 -7.9644e-23)
(-0.000216447 -9.53463e-05 -2.43829e-22)
(-0.000222573 -8.97969e-05 5.82702e-22)
(-0.000229054 -8.36439e-05 -2.5615e-22)
(-0.000235905 -7.69207e-05 -7.87659e-22)
(-0.000243137 -6.96635e-05 -2.69443e-22)
(-0.000250761 -6.1911e-05 -2.75123e-22)
(-0.000258788 -5.37038e-05 -9.39685e-23)
(-0.000267227 -4.50842e-05 3.86773e-22)
(-0.000276088 -3.60958e-05 -3.95907e-22)
(-0.000285379 -2.67833e-05 -5.08955e-22)
(-0.000295108 -1.71921e-05 -3.12638e-22)
(-0.000305282 -7.36817e-06 1.07416e-22)
(-0.00031591 2.64254e-06 -2.19736e-22)
(-0.000326999 1.27941e-05 -8.35116e-25)
(-0.000338555 2.3041e-05 -8.78807e-25)
(-0.000350585 3.33386e-05 1.18499e-22)
(-0.000363097 4.36432e-05 0)
(-0.000376096 5.39126e-05 0)
(-0.00038959 6.41061e-05 -3.87006e-22)
(-0.000403587 7.4185e-05 -6.61965e-22)
(-0.000418094 8.41126e-05 -1.0212e-24)
(-0.000433119 9.38546e-05 0)
(-0.000448671 0.000103379 -1.44901e-22)
(-0.00046476 0.000112656 -5.95201e-22)
(-0.000481396 0.00012166 1.51998e-22)
(-0.00049859 0.000130365 -4.7038e-22)
(-0.000516354 0.000138751 -1.6179e-21)
(-0.000534698 0.000146798 -5.00662e-22)
(-0.000553636 0.00015449 1.72492e-22)
(-0.00057318 0.000161815 -1.75666e-22)
(-0.000593346 0.000168762 -5.45094e-22)
(-0.000614148 0.000175324 -1.86715e-22)
(-0.000635603 0.000181498 1.54701e-21)
(-0.000657727 0.000187281 1.17998e-24)
(-0.00068054 0.000192677 1.02897e-21)
(-0.000704062 0.000197691 -8.4398e-22)
(-0.000728313 0.000202331 6.56825e-22)
(-0.000753318 0.000206608 2.2635e-22)
(-0.0007791 0.000210538 -2.3089e-22)
(-0.000805683 0.000214139 -2.40695e-22)
(-0.000833092 0.000217431 -4.94157e-22)
(-0.000861356 0.000220439 -2.53261e-22)
(-0.000890501 0.000223191 7.86725e-22)
(-0.000920559 0.000225718 1.08097e-21)
(-0.000951559 0.000228054 5.59276e-22)
(-0.000983535 0.000230237 -2.86928e-22)
(-0.00101652 0.000232305 0)
(-0.00105056 0.000234302 3.05046e-22)
(-0.00108568 0.000236273 9.48807e-22)
(-0.00112192 0.000238267 9.82735e-22)
(-0.00115934 0.000240334 3.38846e-22)
(-0.00119798 0.000242527 -1.04759e-21)
(-0.00123787 0.000244902 7.19635e-22)
(-0.00127907 0.000247519 -7.38831e-22)
(-0.00132162 0.000250437 -1.149e-21)
(-0.00136557 0.00025372 7.92928e-22)
(-0.00141096 0.000257433 0)
(-0.00145784 0.000261645 4.26288e-22)
(-0.00150625 0.000266427 1.31658e-21)
(-0.00155625 0.000271851 -4.56149e-22)
(-0.0016079 0.000277994 4.64435e-22)
(-0.00166124 0.000284937 0)
(-0.00171635 0.000292774 5.05778e-22)
(-0.00177325 0.000301581 -1.55828e-21)
(-0.00183207 0.000311558 0)
(-0.00189281 0.000322736 -1.67548e-21)
(-0.00195527 0.000335153 1.73225e-21)
(-0.0020197 0.000349281 0)
(-0.00208628 0.000365027 2.48356e-21)
(-0.00215489 0.000381927 0)
(-0.00222545 0.000399939 2.00523e-21)
(-0.00229798 0.000419419 -1.37168e-21)
(-0.00237261 0.000440808 -1.4229e-21)
(-0.0024496 0.000464456 -1.49112e-21)
(-0.00252923 0.000490583 -1.17098e-21)
(-0.00261166 0.000519304 2.40965e-21)
(-0.00269699 0.000550699 1.66679e-21)
(-0.00278525 0.000584854 -2.15902e-21)
(-0.0028765 0.000621894 4.51498e-22)
(-0.00297078 0.000661974 -4.53288e-22)
(-0.00306818 0.000705273 -1.43964e-21)
(-0.00316878 0.000751979 -4.97664e-22)
(-0.00327265 0.000802286 0)
(-0.00337988 0.000856392 -1.27883e-23)
(-0.00349053 0.000914508 -2.25744e-21)
(-0.00360468 0.000976855 -2.34792e-21)
(-0.00372243 0.00104367 0)
(-0.00384386 0.00111521 1.2612e-21)
(-0.00396908 0.00119174 1.31222e-21)
(-0.00409821 0.00127355 6.91858e-22)
(-0.00423134 0.00136096 -7.08165e-22)
(-0.0043686 0.00145428 -7.30007e-22)
(-0.00451011 0.00155385 -7.68141e-22)
(-0.00465601 0.00166002 1.60654e-21)
(-0.00480645 0.00177318 1.69118e-21)
(-0.0049616 0.00189369 -8.85867e-22)
(-0.00512164 0.00202198 -1.69045e-23)
(-0.00528672 0.00215848 2.84592e-21)
(-0.00545697 0.00230366 0)
(-0.00563251 0.002458 -1.05052e-21)
(-0.00581349 0.00262203 1.07614e-21)
(-0.00600008 0.00279633 -1.14638e-21)
(-0.00619245 0.00298149 1.17448e-21)
(-0.0063908 0.00317816 0)
(-0.00659535 0.00338703 1.31174e-21)
(-0.00680634 0.00360888 -1.34406e-21)
(-0.00702405 0.00384458 -1.43839e-21)
(-0.00724875 0.00409509 -5.23886e-21)
(-0.00748071 0.00436146 3.9162e-21)
(-0.00772031 0.00464476 4.12887e-21)
(-0.00796795 0.00494614 -5.1399e-21)
(-0.00822403 0.00526684 8.93308e-22)
(-0.00848894 0.00560828 -9.65759e-22)
(-0.00876311 0.005972 -3.05219e-21)
(-0.00904687 0.00635972 0)
(-0.00934062 0.00677339 5.64097e-21)
(-0.00964495 0.0072152 4.73006e-21)
(-0.00996033 0.00768755 -1.23174e-21)
(-0.0102875 0.00819317 4.00557e-21)
(-0.0106272 0.00873516 7.09205e-21)