/*--------------------------------*- C++ -*----------------------------------*\
| =========                 |                                                 |
| \\      /  F ield         | OpenFOAM: The Open Source CFD Toolbox           |
|  \\    /   O peration     | Version:  2.3.1                                 |
|   \\  /    A nd           | Web:      www.OpenFOAM.org                      |
|    \\/     M anipulation  |                                                 |
\*---------------------------------------------------------------------------*/
FoamFile
{
    version     2.0;
    format      ascii;
    class       volScalarField;
    location    "1000";
    object      p;
}
// * * * * * * * * * * * * * * * * * * * * * * * * * * * * * * * * * * * * * //

dimensions      [0 2 -2 0 0 0 0];

internalField   nonuniform List<scalar> 
66000
(
0.0337708
0.0337752
0.0337806
0.0337864
0.0337925
0.0337989
0.0338057
0.033813
0.0338207
0.0338289
0.0338375
0.0338466
0.0338562
0.0338663
0.0338771
0.0338884
0.0339004
0.033913
0.0339264
0.0339404
0.0339552
0.0339707
0.033987
0.0340041
0.034022
0.0340408
0.0340605
0.0340811
0.0341027
0.0341253
0.034149
0.0341737
0.0341994
0.0342264
0.0342545
0.0342838
0.0343143
0.0343461
0.0343792
0.0344136
0.0344495
0.0344867
0.0345253
0.0345655
0.0346071
0.0346503
0.0346951
0.0347415
0.0347896
0.0348394
0.034891
0.0349443
0.0349994
0.0350565
0.0351154
0.0351763
0.0352392
0.0353042
0.0353712
0.0354404
0.0355118
0.0355854
0.0356613
0.0357395
0.0358202
0.0359033
0.0359888
0.036077
0.0361678
0.0362612
0.0363574
0.0364564
0.0365583
0.0366631
0.036771
0.0368819
0.036996
0.0371134
0.037234
0.0373581
0.0374857
0.0376169
0.0377517
0.0378903
0.0380327
0.0381791
0.0383296
0.0384842
0.0386431
0.0388064
0.0389741
0.0391465
0.0393236
0.0395056
0.0396925
0.0398846
0.040082
0.0402847
0.040493
0.040707
0.0409269
0.0411528
0.0413849
0.0416234
0.0418685
0.0421203
0.0423791
0.042645
0.0429184
0.0431992
0.0434879
0.0437847
0.0440897
0.0444033
0.0447256
0.045057
0.0453977
0.0457481
0.0461083
0.0464788
0.0468598
0.0472517
0.0476548
0.0480694
0.048496
0.0489349
0.0493865
0.0498512
0.0503295
0.0508218
0.0513285
0.0518502
0.0523874
0.0529408
0.0535108
0.0540975
0.0547014
0.0553226
0.0559629
0.0566234
0.0573045
0.0580065
0.0587299
0.0594753
0.0602434
0.0610349
0.0618504
0.0626906
0.0635563
0.0644481
0.0653667
0.066313
0.0672874
0.0682909
0.0693239
0.0703872
0.0714813
0.0726068
0.0737639
0.0749532
0.0761747
0.0774286
0.0787147
0.0800326
0.0813817
0.0827612
0.0841696
0.0856052
0.0870657
0.088548
0.0900483
0.0915616
0.0930817
0.0946011
0.0961105
0.0975982
0.09905
0.100448
0.101772
0.102994
0.104083
0.104997
0.105688
0.106093
0.106136
0.105721
0.104727
0.103002
0.100351
0.0965268
0.0912112
0.0839926
0.0743417
0.0615933
0.0449383
0.0237601
-0.00259708
-0.0303749
-0.052866
-0.0578558
0.0338128
0.033829
0.0338489
0.033869
0.0338883
0.0339069
0.0339253
0.0339438
0.0339625
0.0339816
0.034001
0.0340207
0.0340407
0.0340611
0.034082
0.0341032
0.0341249
0.034147
0.0341696
0.0341927
0.0342164
0.0342406
0.0342654
0.0342909
0.034317
0.0343438
0.0343715
0.0343999
0.0344291
0.0344592
0.0344902
0.0345222
0.0345552
0.0345892
0.0346244
0.0346606
0.034698
0.0347366
0.0347764
0.0348175
0.03486
0.0349038
0.0349491
0.0349958
0.035044
0.0350938
0.0351452
0.0351982
0.035253
0.0353095
0.0353677
0.0354279
0.0354899
0.0355539
0.0356198
0.0356878
0.0357579
0.0358302
0.0359047
0.0359814
0.0360605
0.0361419
0.0362258
0.0363122
0.0364011
0.0364927
0.0365869
0.0366839
0.0367837
0.0368865
0.0369921
0.0371009
0.0372127
0.0373277
0.037446
0.0375676
0.0376927
0.0378212
0.0379534
0.0380893
0.0382289
0.0383724
0.0385199
0.0386715
0.0388272
0.0389873
0.0391517
0.0393206
0.0394942
0.0396725
0.0398557
0.0400438
0.0402371
0.0404357
0.0406396
0.0408491
0.0410643
0.0412854
0.0415125
0.0417457
0.0419853
0.0422315
0.0424844
0.0427441
0.043011
0.0432853
0.043567
0.0438566
0.0441541
0.0444598
0.044774
0.0450969
0.0454289
0.04577
0.0461207
0.0464813
0.046852
0.0472331
0.047625
0.048028
0.0484425
0.0488688
0.0493073
0.0497583
0.0502224
0.0506998
0.0511911
0.0516967
0.052217
0.0527526
0.053304
0.0538716
0.0544559
0.0550572
0.0556759
0.0563128
0.0569689
0.0576448
0.0583412
0.0590586
0.0597978
0.0605594
0.0613442
0.0621529
0.0629862
0.063845
0.06473
0.0656421
0.066582
0.0675506
0.0685487
0.0695772
0.0706369
0.0717286
0.0728532
0.0740115
0.0752042
0.076432
0.0776956
0.0789955
0.0803323
0.0817062
0.0831176
0.0845664
0.0860523
0.087575
0.0891334
0.0907264
0.0923521
0.0940083
0.0956916
0.0973981
0.0991224
0.100858
0.102597
0.104329
0.106041
0.107717
0.109338
0.11088
0.112312
0.113598
0.114691
0.115535
0.116056
0.116166
0.115751
0.114667
0.112731
0.109709
0.105301
0.099114
0.0906373
0.0792103
0.064012
0.0443718
0.0198156
-0.00649404
-0.027357
-0.0304289
0.033898
0.0339253
0.0339584
0.0339913
0.0340218
0.0340503
0.0340778
0.0341052
0.034133
0.0341611
0.0341894
0.0342178
0.0342463
0.034275
0.0343038
0.0343328
0.034362
0.0343915
0.0344213
0.0344515
0.0344821
0.0345131
0.0345446
0.0345766
0.0346092
0.0346425
0.0346765
0.0347111
0.0347466
0.0347829
0.0348201
0.0348581
0.0348972
0.0349373
0.0349784
0.0350206
0.0350641
0.0351087
0.0351545
0.0352017
0.0352503
0.0353002
0.0353517
0.0354046
0.0354591
0.0355152
0.0355729
0.0356324
0.0356937
0.0357568
0.0358218
0.0358887
0.0359576
0.0360286
0.0361016
0.0361768
0.0362543
0.036334
0.036416
0.0365005
0.0365874
0.0366768
0.0367688
0.0368635
0.0369609
0.0370612
0.0371642
0.0372703
0.0373793
0.0374914
0.0376067
0.0377252
0.037847
0.0379722
0.038101
0.0382333
0.0383692
0.0385089
0.0386525
0.0388
0.0389516
0.0391073
0.0392672
0.0394315
0.0396003
0.0397737
0.0399517
0.0401346
0.0403224
0.0405153
0.0407135
0.0409169
0.0411259
0.0413405
0.0415608
0.0417871
0.0420196
0.0422583
0.0425034
0.0427551
0.0430137
0.0432793
0.043552
0.0438322
0.04412
0.0444157
0.0447194
0.0450315
0.0453521
0.0456815
0.04602
0.0463678
0.0467253
0.0470927
0.0474704
0.0478586
0.0482576
0.0486679
0.0490897
0.0495235
0.0499695
0.0504283
0.0509001
0.0513855
0.0518847
0.0523984
0.052927
0.0534709
0.0540306
0.0546067
0.0551997
0.0558101
0.0564384
0.0570851
0.057751
0.0584368
0.0591435
0.0598714
0.0606212
0.0613938
0.06219
0.0630104
0.063856
0.0647275
0.0656257
0.0665516
0.0675061
0.0684899
0.0695042
0.0705497
0.0716276
0.0727387
0.0738841
0.0750647
0.0762815
0.0775356
0.0788278
0.080159
0.0815302
0.0829422
0.0843958
0.0858915
0.0874299
0.0890115
0.0906364
0.0923044
0.0940152
0.095768
0.0975615
0.0993941
0.101263
0.103166
0.105097
0.107052
0.109023
0.111001
0.112975
0.114931
0.116852
0.118714
0.120492
0.12215
0.123646
0.124926
0.125925
0.126557
0.126716
0.126268
0.125041
0.122815
0.119304
0.11414
0.106839
0.0967755
0.0831893
0.0654663
0.0432884
0.0192793
0.000462296
-0.00111872
0.0340274
0.0340649
0.03411
0.0341545
0.0341955
0.0342333
0.0342694
0.0343052
0.0343412
0.0343775
0.0344138
0.03445
0.034486
0.0345219
0.0345578
0.0345937
0.0346297
0.0346659
0.0347023
0.034739
0.034776
0.0348134
0.0348513
0.0348896
0.0349285
0.034968
0.0350081
0.035049
0.0350906
0.0351331
0.0351764
0.0352206
0.0352658
0.0353121
0.0353594
0.0354079
0.0354575
0.0355085
0.0355607
0.0356143
0.0356694
0.0357259
0.035784
0.0358436
0.0359049
0.0359679
0.0360327
0.0360993
0.0361678
0.0362382
0.0363107
0.0363851
0.0364618
0.0365406
0.0366216
0.0367049
0.0367907
0.0368788
0.0369695
0.0370627
0.0371586
0.0372572
0.0373585
0.0374627
0.0375698
0.0376799
0.0377931
0.0379094
0.038029
0.0381518
0.0382781
0.0384078
0.0385411
0.038678
0.0388186
0.0389631
0.0391115
0.039264
0.0394205
0.0395813
0.0397465
0.039916
0.0400902
0.040269
0.0404526
0.0406411
0.0408346
0.0410333
0.0412374
0.0414468
0.0416619
0.0418826
0.0421093
0.042342
0.0425809
0.0428262
0.043078
0.0433365
0.0436019
0.0438745
0.0441543
0.0444416
0.0447367
0.0450397
0.0453508
0.0456704
0.0459986
0.0463357
0.046682
0.0470377
0.0474031
0.0477785
0.0481643
0.0485607
0.0489681
0.0493867
0.049817
0.0502593
0.050714
0.0511815
0.0516621
0.0521564
0.0526647
0.0531874
0.0537251
0.0542782
0.0548473
0.0554328
0.0560352
0.0566552
0.0572932
0.05795
0.0586259
0.0593219
0.0600385
0.0607765
0.0615365
0.0623194
0.0631259
0.0639569
0.0648131
0.0656954
0.0666047
0.067542
0.0685081
0.069504
0.0705308
0.0715894
0.0726809
0.0738064
0.0749671
0.0761639
0.0773981
0.0786707
0.079983
0.0813362
0.0827312
0.0841694
0.0856518
0.0871795
0.0887536
0.090375
0.0920446
0.0937631
0.0955312
0.0973491
0.0992169
0.101134
0.103101
0.105115
0.107176
0.10928
0.111425
0.113605
0.115815
0.118048
0.120292
0.122537
0.124765
0.126958
0.12909
0.131131
0.133041
0.13477
0.136257
0.137424
0.138172
0.138373
0.137868
0.136449
0.133848
0.129715
0.123594
0.114895
0.10291
0.0870659
0.0671722
0.0455132
0.0288731
0.0288872
0.0342006
0.0342471
0.034303
0.0343579
0.034408
0.0344539
0.0344975
0.0345404
0.0345834
0.0346266
0.0346698
0.0347126
0.0347551
0.0347974
0.0348395
0.0348816
0.0349238
0.034966
0.0350084
0.0350511
0.035094
0.0351372
0.0351809
0.035225
0.0352696
0.0353148
0.0353607
0.0354072
0.0354546
0.0355027
0.0355517
0.0356017
0.0356527
0.0357048
0.035758
0.0358124
0.0358681
0.0359251
0.0359835
0.0360433
0.0361046
0.0361676
0.0362321
0.0362983
0.0363664
0.0364362
0.0365079
0.0365815
0.0366572
0.0367349
0.0368148
0.0368968
0.0369811
0.0370678
0.0371568
0.0372483
0.0373424
0.037439
0.0375383
0.0376403
0.0377452
0.037853
0.0379637
0.0380774
0.0381943
0.0383144
0.0384377
0.0385644
0.0386946
0.0388282
0.0389655
0.0391065
0.0392513
0.0394
0.0395527
0.0397095
0.0398705
0.0400358
0.0402055
0.0403797
0.0405585
0.0407421
0.0409306
0.041124
0.0413226
0.0415264
0.0417356
0.0419503
0.0421707
0.0423969
0.0426291
0.0428674
0.043112
0.0433631
0.0436208
0.0438852
0.0441567
0.0444354
0.0447215
0.0450151
0.0453166
0.045626
0.0459437
0.0462699
0.0466049
0.0469488
0.0473019
0.0476646
0.048037
0.0484196
0.0488125
0.0492161
0.0496308
0.0500568
0.0504945
0.0509443
0.0514066
0.0518817
0.05237
0.052872
0.0533881
0.0539188
0.0544644
0.0550255
0.0556026
0.0561962
0.0568069
0.0574351
0.0580814
0.0587466
0.059431
0.0601355
0.0608607
0.0616073
0.0623761
0.0631677
0.0639831
0.0648229
0.0656882
0.0665797
0.0674983
0.068445
0.0694208
0.0704266
0.0714635
0.0725326
0.0736349
0.0747717
0.075944
0.0771531
0.0784003
0.0796867
0.0810137
0.0823826
0.0837947
0.0852513
0.086754
0.0883039
0.0899025
0.0915512
0.0932513
0.095004
0.0968107
0.0986723
0.10059
0.102564
0.104596
0.106685
0.108832
0.111036
0.113296
0.115611
0.117978
0.120393
0.122852
0.125348
0.127873
0.130417
0.132964
0.135499
0.137998
0.140434
0.14277
0.144962
0.146951
0.148667
0.150016
0.150881
0.151111
0.15051
0.148828
0.145735
0.140798
0.133462
0.123071
0.109089
0.0914351
0.0721515
0.0577046
0.0592752
0.0344164
0.034471
0.0345362
0.0346001
0.0346583
0.0347113
0.0347615
0.0348108
0.0348601
0.0349097
0.0349591
0.0350082
0.0350568
0.0351051
0.0351532
0.0352012
0.0352491
0.0352971
0.0353453
0.0353935
0.0354421
0.0354909
0.0355401
0.0355897
0.0356399
0.0356907
0.0357421
0.0357943
0.0358472
0.0359011
0.0359558
0.0360116
0.0360685
0.0361265
0.0361857
0.0362463
0.0363081
0.0363714
0.0364362
0.0365025
0.0365704
0.03664
0.0367114
0.0367846
0.0368596
0.0369366
0.0370156
0.0370967
0.03718
0.0372654
0.0373532
0.0374433
0.0375358
0.0376308
0.0377284
0.0378286
0.0379315
0.0380372
0.0381458
0.0382573
0.0383718
0.0384894
0.0386102
0.0387342
0.0388616
0.0389923
0.0391266
0.0392645
0.039406
0.0395514
0.0397005
0.0398537
0.0400109
0.0401723
0.0403379
0.0405079
0.0406824
0.0408615
0.0410453
0.0412339
0.0414275
0.0416261
0.0418299
0.042039
0.0422536
0.0424738
0.0426998
0.0429317
0.0431696
0.0434137
0.0436641
0.0439211
0.0441849
0.0444555
0.0447331
0.0450181
0.0453105
0.0456106
0.0459185
0.0462346
0.0465589
0.0468919
0.0472336
0.0475843
0.0479444
0.048314
0.0486935
0.0490831
0.0494832
0.049894
0.0503159
0.0507492
0.0511943
0.0516514
0.0521211
0.0526036
0.0530994
0.0536089
0.0541325
0.0546707
0.0552239
0.0557926
0.0563773
0.0569785
0.0575968
0.0582326
0.0588867
0.0595595
0.0602517
0.0609639
0.0616968
0.0624511
0.0632275
0.0640268
0.0648498
0.0656973
0.0665701
0.0674691
0.0683953
0.0693495
0.0703328
0.0713462
0.0723906
0.0734673
0.0745774
0.075722
0.0769024
0.0781198
0.0793755
0.0806709
0.0820074
0.0833863
0.0848091
0.0862773
0.0877924
0.089356
0.0909697
0.092635
0.0943537
0.0961273
0.0979575
0.0998459
0.101794
0.103803
0.105875
0.108011
0.110212
0.112479
0.114812
0.117212
0.119678
0.12221
0.124806
0.127463
0.130179
0.132947
0.135761
0.138612
0.141489
0.144375
0.147251
0.150091
0.152864
0.155528
0.158031
0.160306
0.162267
0.163804
0.164777
0.165003
0.164244
0.162189
0.158432
0.152449
0.143626
0.131467
0.115983
0.0990515
0.086777
0.0898615
0.0346738
0.0347352
0.0348085
0.0348803
0.0349454
0.0350046
0.0350605
0.0351154
0.0351704
0.0352255
0.0352805
0.035335
0.035389
0.0354425
0.0354957
0.0355488
0.0356019
0.0356549
0.035708
0.0357613
0.0358149
0.0358687
0.035923
0.0359777
0.036033
0.036089
0.0361457
0.0362031
0.0362615
0.0363208
0.0363811
0.0364425
0.0365051
0.0365689
0.036634
0.0367005
0.0367685
0.036838
0.0369091
0.0369818
0.0370563
0.0371326
0.0372108
0.0372909
0.0373731
0.0374573
0.0375437
0.0376323
0.0377233
0.0378166
0.0379124
0.0380106
0.0381115
0.0382151
0.0383214
0.0384305
0.0385426
0.0386576
0.0387757
0.0388969
0.0390213
0.039149
0.0392801
0.0394147
0.0395528
0.0396946
0.0398401
0.0399895
0.0401428
0.0403001
0.0404615
0.0406272
0.0407972
0.0409716
0.0411506
0.0413342
0.0415226
0.0417159
0.0419142
0.0421176
0.0423264
0.0425405
0.0427601
0.0429855
0.0432166
0.0434537
0.043697
0.0439465
0.0442025
0.0444651
0.0447344
0.0450108
0.0452942
0.0455851
0.0458834
0.0461895
0.0465035
0.0468258
0.0471564
0.0474956
0.0478437
0.0482009
0.0485674
0.0489436
0.0493298
0.0497261
0.0501329
0.0505504
0.0509792
0.0514193
0.0518712
0.0523353
0.0528119
0.0533014
0.0538042
0.0543207
0.0548513
0.0553964
0.0559566
0.0565323
0.057124
0.0577322
0.0583575
0.0590003
0.0596614
0.0603411
0.0610402
0.0617594
0.0624991
0.0632603
0.0640435
0.0648495
0.0656792
0.0665332
0.0674125
0.068318
0.0692504
0.0702109
0.0712003
0.0722197
0.0732702
0.0743528
0.0754687
0.0766192
0.0778054
0.0790286
0.0802901
0.0815915
0.082934
0.0843191
0.0857484
0.0872234
0.0887458
0.0903172
0.0919394
0.0936141
0.095343
0.0971282
0.0989715
0.100875
0.10284
0.104869
0.106964
0.109127
0.111359
0.113662
0.116038
0.118489
0.121015
0.123617
0.126296
0.129052
0.131885
0.134792
0.137772
0.14082
0.143932
0.1471
0.150314
0.15356
0.156822
0.160077
0.163296
0.166442
0.169467
0.172309
0.17489
0.177107
0.178828
0.179882
0.180047
0.179028
0.176442
0.171795
0.164514
0.154138
0.140758
0.126156
0.11601
0.120526
0.0349713
0.0350385
0.0351186
0.035197
0.0352681
0.0353326
0.0353935
0.0354531
0.0355129
0.0355728
0.0356326
0.0356919
0.0357506
0.0358088
0.0358667
0.0359245
0.0359822
0.0360399
0.0360978
0.0361559
0.0362143
0.036273
0.0363322
0.0363919
0.0364523
0.0365134
0.0365753
0.0366381
0.0367018
0.0367666
0.0368324
0.0368995
0.0369678
0.0370375
0.0371086
0.0371812
0.0372554
0.0373313
0.0374088
0.0374882
0.0375695
0.0376527
0.0377379
0.0378253
0.0379148
0.0380066
0.0381007
0.0381972
0.0382962
0.0383977
0.0385019
0.0386088
0.0387184
0.0388309
0.0389464
0.0390649
0.0391865
0.0393113
0.0394393
0.0395707
0.0397056
0.0398439
0.0399859
0.0401316
0.0402811
0.0404344
0.0405918
0.0407532
0.0409189
0.0410888
0.0412631
0.0414419
0.0416254
0.0418135
0.0420065
0.0422045
0.0424075
0.0426158
0.0428294
0.0430484
0.0432731
0.0435035
0.0437398
0.0439821
0.0442306
0.0444855
0.0447469
0.0450149
0.0452898
0.0455718
0.0458609
0.0461574
0.0464616
0.0467735
0.0470935
0.0474217
0.0477583
0.0481036
0.0484578
0.0488212
0.049194
0.0495765
0.049969
0.0503716
0.0507848
0.0512089
0.0516441
0.0520907
0.0525492
0.0530198
0.0535029
0.053999
0.0545083
0.0550313
0.0555684
0.0561201
0.0566867
0.0572689
0.057867
0.0584816
0.0591131
0.0597622
0.0604294
0.0611154
0.0618206
0.0625457
0.0632914
0.0640584
0.0648474
0.0656591
0.0664943
0.0673538
0.0682383
0.0691489
0.0700863
0.0710516
0.0720457
0.0730695
0.0741242
0.0752109
0.0763307
0.0774848
0.0786744
0.0799009
0.0811655
0.0824698
0.083815
0.0852029
0.0866348
0.0881124
0.0896374
0.0912115
0.0928365
0.0945143
0.0962468
0.098036
0.0998838
0.101793
0.103764
0.105801
0.107906
0.11008
0.112326
0.114646
0.117043
0.119519
0.122076
0.124715
0.127439
0.13025
0.133148
0.136135
0.139211
0.142375
0.145626
0.148962
0.152378
0.15587
0.159429
0.163043
0.166699
0.170376
0.174049
0.177684
0.181237
0.184653
0.187859
0.190758
0.19323
0.195113
0.196197
0.196206
0.194776
0.191444
0.185674
0.177038
0.165683
0.153378
0.145297
0.151134
0.0353074
0.0353793
0.0354651
0.0355489
0.0356249
0.0356938
0.0357587
0.0358223
0.0358861
0.0359501
0.036014
0.0360774
0.0361402
0.0362025
0.0362645
0.0363264
0.0363883
0.0364502
0.0365124
0.0365748
0.0366375
0.0367007
0.0367645
0.0368288
0.0368939
0.0369598
0.0370266
0.0370944
0.0371632
0.0372332
0.0373044
0.037377
0.0374509
0.0375264
0.0376034
0.0376821
0.0377624
0.0378447
0.0379287
0.0380148
0.0381029
0.0381931
0.0382855
0.0383802
0.0384772
0.0385767
0.0386787
0.0387833
0.0388905
0.0390005
0.0391133
0.0392289
0.0393476
0.0394694
0.0395943
0.0397224
0.0398538
0.0399887
0.040127
0.040269
0.0404146
0.0405639
0.0407171
0.0408743
0.0410355
0.0412008
0.0413705
0.0415444
0.0417228
0.0419058
0.0420934
0.0422859
0.0424832
0.0426856
0.0428931
0.0431059
0.0433241
0.0435478
0.0437772
0.0440124
0.0442535
0.0445008
0.0447543
0.0450142
0.0452807
0.0455539
0.045834
0.0461212
0.0464157
0.0467177
0.0470273
0.0473447
0.0476703
0.0480041
0.0483464
0.0486974
0.0490574
0.0494266
0.0498053
0.0501937
0.0505921
0.0510008
0.05142
0.0518501
0.0522913
0.0527441
0.0532086
0.0536854
0.0541746
0.0546768
0.0551922
0.0557213
0.0562645
0.0568222
0.0573949
0.057983
0.058587
0.0592074
0.0598447
0.0604995
0.0611723
0.0618637
0.0625744
0.0633048
0.0640557
0.0648278
0.0656217
0.0664382
0.0672781
0.068142
0.0690309
0.0699456
0.0708869
0.0718559
0.0728534
0.0738805
0.0749381
0.0760275
0.0771496
0.0783058
0.0794971
0.080725
0.0819908
0.0832957
0.0846414
0.0860293
0.087461
0.088938
0.0904622
0.0920353
0.093659
0.0953353
0.0970662
0.0988538
0.1007
0.102607
0.104578
0.106614
0.108718
0.110892
0.11314
0.115463
0.117865
0.120348
0.122914
0.125567
0.12831
0.131143
0.134071
0.137096
0.140219
0.143442
0.146767
0.150193
0.153722
0.157352
0.16108
0.164902
0.168812
0.172801
0.176857
0.180962
0.185095
0.189224
0.193311
0.197304
0.201136
0.20472
0.20794
0.210647
0.212643
0.213667
0.213376
0.211334
0.207039
0.200099
0.19069
0.180593
0.17452
0.18155
0.0356804
0.035756
0.035846
0.0359341
0.0360139
0.0360863
0.0361544
0.0362212
0.0362882
0.0363555
0.0364228
0.0364897
0.0365559
0.0366217
0.0366873
0.0367528
0.0368184
0.0368842
0.0369502
0.0370166
0.0370835
0.0371509
0.0372189
0.0372878
0.0373574
0.037428
0.0374997
0.0375724
0.0376464
0.0377217
0.0377983
0.0378765
0.0379562
0.0380375
0.0381206
0.0382055
0.0382923
0.038381
0.0384718
0.0385647
0.0386599
0.0387573
0.0388571
0.0389594
0.0390642
0.0391716
0.0392817
0.0393947
0.0395104
0.0396291
0.0397508
0.0398757
0.0400037
0.0401351
0.0402697
0.0404079
0.0405496
0.0406949
0.040844
0.0409968
0.0411536
0.0413144
0.0414793
0.0416484
0.0418218
0.0419996
0.0421819
0.0423689
0.0425606
0.0427571
0.0429586
0.0431652
0.043377
0.0435941
0.0438167
0.0440449
0.0442788
0.0445186
0.0447644
0.0450164
0.0452746
0.0455394
0.0458107
0.0460889
0.046374
0.0466663
0.0469658
0.0472729
0.0475877
0.0479104
0.0482412
0.0485803
0.048928
0.0492844
0.0496498
0.0500245
0.0504087
0.0508026
0.0512065
0.0516208
0.0520456
0.0524813
0.0529281
0.0533865
0.0538566
0.054339
0.0548338
0.0553416
0.0558626
0.0563972
0.0569459
0.0575091
0.0580872
0.0586806
0.0592899
0.0599155
0.0605579
0.0612177
0.0618954
0.0625915
0.0633068
0.0640417
0.064797
0.0655732
0.0663711
0.0671914
0.0680349
0.0689023
0.0697944
0.070712
0.0716561
0.0726275
0.0736271
0.074656
0.0757152
0.0768058
0.0779287
0.0790853
0.0802767
0.0815042
0.0827691
0.0840728
0.0854167
0.0868022
0.0882311
0.0897048
0.0912252
0.0927939
0.0944127
0.0960837
0.0978088
0.09959
0.10143
0.10333
0.105293
0.107321
0.109417
0.111584
0.113823
0.116139
0.118534
0.12101
0.123571
0.12622
0.128961
0.131795
0.134727
0.13776
0.140896
0.144139
0.147492
0.150956
0.154535
0.15823
0.162041
0.16597
0.170014
0.174172
0.178439
0.182807
0.187268
0.191805
0.196401
0.201027
0.20565
0.210221
0.21468
0.218945
0.222909
0.226432
0.229327
0.231349
0.232174
0.231391
0.228532
0.22324
0.215706
0.207672
0.203546
0.211634
0.0360881
0.0361661
0.0362591
0.0363502
0.0364328
0.0365077
0.0365782
0.0366474
0.0367169
0.0367868
0.0368568
0.0369265
0.0369956
0.0370643
0.0371329
0.0372016
0.0372705
0.0373396
0.0374092
0.0374792
0.0375499
0.0376212
0.0376934
0.0377664
0.0378404
0.0379155
0.0379919
0.0380694
0.0381484
0.0382288
0.0383108
0.0383945
0.0384798
0.038567
0.0386561
0.0387471
0.0388402
0.0389355
0.039033
0.0391329
0.0392352
0.0393399
0.0394472
0.0395572
0.0396699
0.0397855
0.0399039
0.0400254
0.0401499
0.0402775
0.0404085
0.0405427
0.0406804
0.0408215
0.0409663
0.0411148
0.041267
0.0414231
0.0415832
0.0417473
0.0419156
0.0420882
0.0422651
0.0424465
0.0426325
0.0428231
0.0430186
0.0432189
0.0434243
0.0436348
0.0438506
0.0440718
0.0442985
0.0445309
0.044769
0.0450131
0.0452632
0.0455195
0.0457822
0.0460514
0.0463273
0.0466101
0.0468999
0.0471968
0.0475011
0.047813
0.0481326
0.0484601
0.0487958
0.0491399
0.0494925
0.0498539
0.0502243
0.050604
0.0509933
0.0513923
0.0518013
0.0522206
0.0526506
0.0530914
0.0535433
0.0540068
0.0544821
0.0549695
0.0554695
0.0559822
0.0565082
0.0570479
0.0576015
0.0581695
0.0587524
0.0593506
0.0599645
0.0605947
0.0612416
0.0619057
0.0625876
0.0632879
0.064007
0.0647457
0.0655045
0.0662842
0.0670853
0.0679086
0.0687548
0.0696246
0.0705189
0.0714385
0.0723842
0.0733569
0.0743576
0.0753872
0.0764466
0.077537
0.0786595
0.0798151
0.081005
0.0822306
0.083493
0.0847936
0.0861338
0.0875151
0.0889391
0.0904073
0.0919213
0.093483
0.0950942
0.0967567
0.0984726
0.100244
0.102073
0.103961
0.105912
0.107927
0.11001
0.112162
0.114387
0.116687
0.119065
0.121525
0.12407
0.126703
0.129427
0.132246
0.135163
0.138183
0.141308
0.144544
0.147892
0.151358
0.154944
0.158654
0.162491
0.166457
0.170556
0.174787
0.179152
0.183649
0.188276
0.193027
0.197895
0.202867
0.207927
0.213051
0.218209
0.223356
0.228438
0.233378
0.238078
0.242405
0.246183
0.249182
0.251095
0.251536
0.250068
0.246366
0.240629
0.234517
0.232232
0.241251
0.0365277
0.036607
0.0367017
0.0367945
0.0368788
0.0369553
0.0370274
0.0370982
0.0371694
0.0372412
0.0373133
0.037385
0.0374565
0.0375276
0.0375988
0.0376701
0.0377419
0.0378141
0.0378868
0.0379602
0.0380343
0.0381094
0.0381853
0.0382624
0.0383406
0.0384202
0.0385011
0.0385834
0.0386673
0.0387529
0.0388402
0.0389294
0.0390205
0.0391136
0.0392087
0.0393061
0.0394058
0.0395078
0.0396122
0.0397192
0.0398288
0.0399411
0.0400561
0.0401741
0.040295
0.0404189
0.0405459
0.0406761
0.0408097
0.0409466
0.0410869
0.0412309
0.0413785
0.0415298
0.0416849
0.041844
0.0420071
0.0421743
0.0423457
0.0425215
0.0427017
0.0428863
0.0430757
0.0432697
0.0434686
0.0436725
0.0438815
0.0440956
0.0443151
0.04454
0.0447705
0.0450067
0.0452487
0.0454967
0.0457508
0.0460112
0.046278
0.0465514
0.0468315
0.0471184
0.0474125
0.0477137
0.0480224
0.0483386
0.0486626
0.0489946
0.0493348
0.0496834
0.0500405
0.0504064
0.0507814
0.0511657
0.0515595
0.0519631
0.0523767
0.0528007
0.0532352
0.0536806
0.0541371
0.0546051
0.0550849
0.0555768
0.0560812
0.0565984
0.0571287
0.0576727
0.0582305
0.0588027
0.0593897
0.0599919
0.0606097
0.0612437
0.0618943
0.0625619
0.0632473
0.0639508
0.064673
0.0654146
0.0661761
0.0669582
0.0677616
0.0685868
0.0694348
0.0703061
0.0712015
0.0721219
0.0730681
0.074041
0.0750414
0.0760703
0.0771288
0.0782177
0.0793381
0.0804912
0.0816782
0.0829002
0.0841584
0.0854543
0.0867891
0.0881643
0.0895813
0.0910418
0.0925474
0.0940998
0.0957008
0.0973521
0.0990559
0.100814
0.102629
0.104502
0.106437
0.108435
0.110499
0.112631
0.114835
0.117114
0.119469
0.121905
0.124425
0.127032
0.129729
0.132521
0.135411
0.138402
0.1415
0.144707
0.14803
0.15147
0.155034
0.158725
0.162548
0.166506
0.170604
0.174845
0.179233
0.18377
0.188458
0.193296
0.198285
0.20342
0.208695
0.214102
0.219626
0.225246
0.230935
0.236654
0.242352
0.247958
0.25338
0.258495
0.263137
0.267087
0.270056
0.27168
0.271551
0.269373
0.265346
0.261032
0.260432
0.270263
0.0369959
0.0370754
0.0371704
0.0372637
0.0373487
0.0374258
0.0374986
0.0375703
0.0376425
0.0377155
0.0377889
0.0378623
0.0379354
0.0380085
0.0380817
0.0381554
0.0382296
0.0383044
0.03838
0.0384565
0.0385339
0.0386123
0.038692
0.0387729
0.0388552
0.038939
0.0390243
0.0391114
0.0392002
0.0392909
0.0393835
0.0394781
0.0395749
0.039674
0.0397753
0.039879
0.0399852
0.040094
0.0402054
0.0403195
0.0404365
0.0405564
0.0406793
0.0408053
0.0409345
0.0410669
0.0412026
0.0413418
0.0414845
0.0416308
0.0417808
0.0419346
0.0420923
0.042254
0.0424198
0.0425897
0.0427639
0.0429425
0.0431255
0.0433131
0.0435054
0.0437025
0.0439045
0.0441115
0.0443237
0.0445411
0.0447639
0.0449921
0.045226
0.0454657
0.0457112
0.0459627
0.0462204
0.0464844
0.0467549
0.047032
0.0473158
0.0476066
0.0479044
0.0482095
0.0485221
0.0488422
0.0491702
0.0495061
0.0498503
0.0502028
0.050564
0.050934
0.051313
0.0517013
0.0520992
0.0525068
0.0529245
0.0533524
0.0537909
0.0542403
0.0547008
0.0551727
0.0556564
0.0561522
0.0566603
0.0571812
0.0577153
0.0582628
0.0588242
0.0593998
0.0599901
0.0605956
0.0612165
0.0618535
0.0625069
0.0631773
0.0638652
0.0645711
0.0652956
0.0660392
0.0668025
0.0675861
0.0683908
0.0692171
0.0700657
0.0709375
0.071833
0.0727532
0.0736988
0.0746706
0.0756696
0.0766967
0.0777528
0.0788389
0.079956
0.0811052
0.0822877
0.0835046
0.0847571
0.0860465
0.0873741
0.0887414
0.0901498
0.0916007
0.0930959
0.0946368
0.0962253
0.0978632
0.0995524
0.101295
0.103093
0.104948
0.106863
0.10884
0.110882
0.112991
0.11517
0.117421
0.119749
0.122155
0.124643
0.127217
0.12988
0.132635
0.135487
0.13844
0.141497
0.144663
0.147943
0.151341
0.154861
0.158509
0.16229
0.166209
0.17027
0.174478
0.178839
0.183356
0.188035
0.192878
0.197889
0.203069
0.208419
0.213937
0.219619
0.225458
0.231442
0.237553
0.243768
0.25005
0.256353
0.262613
0.268742
0.274625
0.280105
0.284976
0.288964
0.291725
0.292879
0.292152
0.289738
0.287098
0.288014
0.298541
0.0374887
0.0375673
0.0376613
0.037754
0.0378385
0.0379154
0.0379881
0.0380599
0.0381324
0.0382059
0.0382801
0.0383545
0.0384288
0.0385033
0.0385782
0.0386537
0.03873
0.0388072
0.0388854
0.0389646
0.039045
0.0391267
0.0392099
0.0392945
0.0393807
0.0394687
0.0395584
0.0396501
0.0397437
0.0398394
0.0399373
0.0400375
0.04014
0.040245
0.0403525
0.0404626
0.0405755
0.0406911
0.0408096
0.0409311
0.0410556
0.0411833
0.0413142
0.0414484
0.041586
0.0417271
0.0418717
0.0420201
0.0421722
0.0423281
0.042488
0.0426519
0.0428199
0.0429922
0.0431688
0.0433498
0.0435353
0.0437255
0.0439204
0.0441201
0.0443248
0.0445345
0.0447495
0.0449697
0.0451953
0.0454265
0.0456634
0.045906
0.0461546
0.0464092
0.04667
0.0469372
0.0472108
0.0474911
0.0477782
0.0480722
0.0483734
0.0486818
0.0489977
0.0493213
0.0496526
0.049992
0.0503396
0.0506956
0.0510602
0.0514336
0.0518161
0.0522078
0.0526091
0.0530201
0.0534411
0.0538725
0.0543143
0.054767
0.0552307
0.0557059
0.0561927
0.0566916
0.0572028
0.0577267
0.0582636
0.0588139
0.059378
0.0599563
0.0605491
0.0611568
0.06178
0.0624191
0.0630745
0.0637467
0.0644361
0.0651434
0.0658691
0.0666136
0.0673777
0.0681618
0.0689667
0.0697929
0.0706412
0.0715122
0.0724067
0.0733254
0.0742692
0.0752388
0.0762351
0.0772589
0.0783113
0.0793932
0.0805055
0.0816494
0.0828258
0.084036
0.0852812
0.0865625
0.0878813
0.0892389
0.0906367
0.0920761
0.0935588
0.0950863
0.0966602
0.0982824
0.0999547
0.101679
0.103457
0.105292
0.107184
0.109138
0.111154
0.113236
0.115386
0.117607
0.119902
0.122273
0.124725
0.12726
0.129882
0.132595
0.135402
0.138307
0.141315
0.144429
0.147655
0.150997
0.15446
0.158048
0.161768
0.165625
0.169624
0.17377
0.17807
0.182529
0.187152
0.191946
0.196914
0.202063
0.207396
0.212916
0.218625
0.224523
0.230607
0.236874
0.243312
0.249907
0.256638
0.263472
0.270367
0.277264
0.28408
0.290707
0.296997
0.302755
0.307719
0.311567
0.31394
0.314583
0.313679
0.312585
0.314858
0.32596
0.0380015
0.038078
0.0381698
0.0382606
0.0383436
0.0384194
0.0384913
0.0385625
0.0386347
0.0387082
0.0387826
0.0388574
0.0389325
0.0390079
0.0390841
0.0391611
0.0392392
0.0393184
0.0393988
0.0394806
0.0395638
0.0396486
0.039735
0.0398232
0.0399133
0.0400053
0.0400993
0.0401955
0.0402939
0.0403947
0.0404979
0.0406035
0.0407118
0.0408227
0.0409364
0.041053
0.0411725
0.041295
0.0414207
0.0415495
0.0416817
0.0418172
0.0419561
0.0420986
0.0422447
0.0423946
0.0425482
0.0427058
0.0428674
0.043033
0.0432028
0.043377
0.0435554
0.0437384
0.0439259
0.0441181
0.0443151
0.044517
0.0447239
0.0449359
0.0451531
0.0453756
0.0456036
0.0458372
0.0460765
0.0463216
0.0465727
0.0468299
0.0470933
0.047363
0.0476393
0.0479223
0.048212
0.0485088
0.0488127
0.0491238
0.0494425
0.0497688
0.050103
0.0504451
0.0507955
0.0511543
0.0515217
0.0518979
0.0522831
0.0526776
0.0530816
0.0534953
0.053919
0.054353
0.0547974
0.0552526
0.0557189
0.0561965
0.0566857
0.0571869
0.0577003
0.0582263
0.0587653
0.0593175
0.0598834
0.0604634
0.0610577
0.0616669
0.0622914
0.0629316
0.0635879
0.0642608
0.0649509
0.0656585
0.0663843
0.0671288
0.0678924
0.0686759
0.0694799
0.0703049
0.0711515
0.0720206
0.0729128
0.0738288
0.0747694
0.0757355
0.0767277
0.077747
0.0787943
0.0798705
0.0809766
0.0821136
0.0832825
0.0844844
0.0857206
0.0869921
0.0883003
0.0896464
0.0910318
0.0924579
0.0939261
0.0954381
0.0969955
0.0985999
0.100253
0.101957
0.103713
0.105524
0.107392
0.109319
0.111307
0.113358
0.115476
0.117663
0.119922
0.122255
0.124667
0.127159
0.129735
0.1324
0.135156
0.138008
0.140959
0.144014
0.147178
0.150454
0.153849
0.157366
0.161012
0.164791
0.168711
0.172775
0.176991
0.181365
0.185902
0.19061
0.195495
0.200562
0.205819
0.211271
0.216922
0.222778
0.228842
0.235114
0.241595
0.248281
0.255164
0.262233
0.269467
0.27684
0.28431
0.291823
0.299303
0.306647
0.313715
0.32032
0.326215
0.331094
0.334618
0.336547
0.337044
0.337362
0.34084
0.3524
0.0385286
0.0386024
0.0386914
0.038779
0.0388588
0.0389325