/*--------------------------------*- C++ -*----------------------------------*\
| =========                 |                                                 |
| \\      /  F ield         | OpenFOAM: The Open Source CFD Toolbox           |
|  \\    /   O peration     | Version:  2.3.1                                 |
|   \\  /    A nd           | Web:      www.OpenFOAM.org                      |
|    \\/     M anipulation  |                                                 |
\*---------------------------------------------------------------------------*/
FoamFile
{
    version     2.0;
    format      ascii;
    class       surfaceScalarField;
    location    "1000";
    object      phi;
}
// * * * * * * * * * * * * * * * * * * * * * * * * * * * * * * * * * * * * * //

dimensions      [0 3 -1 0 0 0 0];

internalField   nonuniform List<scalar> 
131620
(
0.82515
-0.235924
0.244108
0.817035
-0.234028
0.242143
0.808986
-0.232149
0.240198
0.801004
-0.230288
0.238271
0.793087
-0.228444
0.23636
0.785237
-0.226617
0.234467
0.777452
-0.224807
0.232592
0.769732
-0.223013
0.230733
0.762076
-0.221235
0.228891
0.754483
-0.219474
0.227066
0.746954
-0.217728
0.225258
0.739486
-0.215998
0.223465
0.732081
-0.214284
0.221689
0.724736
-0.212585
0.219929
0.717452
-0.210901
0.218184
0.710229
-0.209232
0.216456
0.703064
-0.207578
0.214742
0.695959
-0.205938
0.213044
0.688912
-0.204313
0.21136
0.681922
-0.202702
0.209692
0.67499
-0.201106
0.208038
0.668114
-0.199523
0.206398
0.661295
-0.197954
0.204773
0.654531
-0.196398
0.203162
0.647822
-0.194856
0.201564
0.641168
-0.193327
0.199981
0.634568
-0.191811
0.198411
0.628022
-0.190307
0.196854
0.621528
-0.188817
0.19531
0.615087
-0.187339
0.19378
0.608698
-0.185873
0.192262
0.60236
-0.184419
0.190757
0.596074
-0.182978
0.189264
0.589838
-0.181548
0.187784
0.583652
-0.18013
0.186316
0.577516
-0.178724
0.18486
0.571428
-0.177329
0.183416
0.56539
-0.175945
0.181984
0.5594
-0.174573
0.180563
0.553457
-0.173211
0.179154
0.547562
-0.171861
0.177756
0.541713
-0.170521
0.17637
0.535911
-0.169193
0.174995
0.530155
-0.167874
0.17363
0.524444
-0.166567
0.172277
0.518779
-0.165269
0.170935
0.513158
-0.163982
0.169603
0.507582
-0.162705
0.168282
0.502049
-0.161439
0.166971
0.496561
-0.160182
0.165671
0.491115
-0.158935
0.164381
0.485712
-0.157698
0.163101
0.480351
-0.156471
0.161832
0.475033
-0.155254
0.160572
0.469756
-0.154046
0.159323
0.46452
-0.152848
0.158084
0.459325
-0.151659
0.156854
0.454171
-0.15048
0.155634
0.449057
-0.14931
0.154424
0.443983
-0.148149
0.153223
0.438949
-0.146998
0.152032
0.433954
-0.145856
0.150851
0.428997
-0.144723
0.149679
0.42408
-0.143599
0.148516
0.4192
-0.142483
0.147363
0.414359
-0.141377
0.146219
0.409555
-0.14028
0.145084
0.404788
-0.139192
0.143958
0.400059
-0.138112
0.142842
0.395366
-0.137041
0.141734
0.390709
-0.135979
0.140635
0.386089
-0.134925
0.139545
0.381504
-0.13388
0.138464
0.376955
-0.132843
0.137392
0.372442
-0.131815
0.136329
0.367963
-0.130795
0.135274
0.363519
-0.129784
0.134228
0.359109
-0.12878
0.13319
0.354733
-0.127785
0.132161
0.350392
-0.126799
0.13114
0.346084
-0.12582
0.130128
0.341809
-0.124849
0.129124
0.337567
-0.123887
0.128128
0.333358
-0.122932
0.127141
0.329182
-0.121985
0.126162
0.325037
-0.121046
0.12519
0.320925
-0.120115
0.124227
0.316845
-0.119191
0.123272
0.312796
-0.118276
0.122325
0.308778
-0.117368
0.121385
0.304791
-0.116467
0.120454
0.300835
-0.115574
0.11953
0.296909
-0.114688
0.118614
0.293014
-0.11381
0.117705
0.289149
-0.112939
0.116805
0.285313
-0.112076
0.115911
0.281507
-0.111219
0.115025
0.27773
-0.11037
0.114147
0.273982
-0.109528
0.113276
0.270262
-0.108693
0.112412
0.266572
-0.107865
0.111556
0.262909
-0.107045
0.110707
0.259275
-0.106231
0.109865
0.255668
-0.105424
0.10903
0.252089
-0.104624
0.108203
0.248537
-0.10383
0.107382
0.245012
-0.103044
0.106568
0.241515
-0.102264
0.105762
0.238044
-0.101491
0.104962
0.234599
-0.100724
0.104169
0.23118
-0.0999644
0.103383
0.227788
-0.0992111
0.102604
0.224421
-0.0984644
0.101831
0.221079
-0.0977241
0.101065
0.217763
-0.0969903
0.100306
0.214472
-0.0962629
0.0995539
0.211206
-0.095542
0.0988081
0.207965
-0.0948273
0.0980688
0.204748
-0.094119
0.0973362
0.201555
-0.0934171
0.09661
0.198386
-0.0927214
0.0958903
0.195241
-0.0920319
0.0951772
0.192119
-0.0913487
0.0944704
0.189021
-0.0906717
0.0937701
0.185945
-0.0900009
0.0930762
0.182893
-0.0893363
0.0923887
0.179863
-0.0886778
0.0917075
0.176856
-0.0880254
0.0910327
0.173871
-0.0873792
0.0903643
0.170908
-0.0867391
0.0897022
0.167966
-0.086105
0.0890463
0.165047
-0.0854771
0.0883968
0.162148
-0.0848552
0.0877536
0.159271
-0.0842394
0.0871167
0.156414
-0.0836295
0.086486
0.153579
-0.0830258
0.0858616
0.150763
-0.0824281
0.0852434
0.147968
-0.0818367
0.0846315
0.145194
-0.0812516
0.084026
0.14244
-0.0806726
0.083427
0.139705
-0.0800998
0.0828344
0.13699
-0.0795331
0.0822483
0.134294
-0.0789726
0.0816686
0.131617
-0.0784183
0.0810954
0.128958
-0.0778702
0.0805286
0.126318
-0.0773285
0.0799684
0.123697
-0.076793
0.0794147
0.121093
-0.076264
0.0788677
0.118507
-0.0757415
0.0783274
0.115939
-0.0752255
0.0777938
0.113388
-0.0747161
0.0772671
0.110854
-0.0742134
0.0767474
0.108337
-0.0737175
0.0762346
0.105836
-0.0732285
0.0757291
0.103352
-0.0727465
0.0752308
0.100883
-0.0722717
0.0747399
0.098431
-0.0718041
0.0742566
0.0959939
-0.0713441
0.0737811
0.0935721
-0.0708916
0.0733135
0.0911651
-0.070447
0.072854
0.0887728
-0.0700105
0.0724029
0.0863947
-0.0695823
0.0719604
0.0840305
-0.0691626
0.0715268
0.08168
-0.0687519
0.0711025
0.0793426
-0.0683504
0.0706877
0.0770182
-0.0679585
0.070283
0.0747062
-0.0675767
0.0698887
0.0724062
-0.0672055
0.0695054
0.0701178
-0.0668453
0.0691337
0.0678405
-0.0664968
0.0687741
0.0655738
-0.0661606
0.0684273
0.0633171
-0.0658376
0.0680943
0.0610698
-0.0655286
0.0677759
0.0588313
-0.0652346
0.0674731
0.0566009
-0.0649567
0.0671871
0.0543777
-0.0646961
0.0669193
0.0521609
-0.0644544
0.0666712
0.0499496
-0.0642331
0.0664444
0.0477425
-0.0640341
0.0662412
0.0455386
-0.0638597
0.0660637
0.0433363
-0.0637124
0.0659146
0.0411342
-0.0635949
0.0657971
0.0389303
-0.0635108
0.0657147
0.0367226
-0.063464
0.0656717
0.0345087
-0.0634591
0.065673
0.0322857
-0.0635015
0.0657245
0.0300501
-0.0635976
0.0658332
0.027798
-0.0637552
0.0660072
0.0255247
-0.0639832
0.0662566
0.0232241
-0.0642926
0.0665932
0.0208893
-0.0646965
0.0670314
0.0185109
-0.0652086
0.067587
0.0160766
-0.0658359
0.0682701
0.0135699
-0.0665459
0.0690527
0.0109719
-0.0671714
0.0697694
0.00827661
-0.067191
0.0698863
0.00553861
-0.065357
0.068095
0.00293953
-0.0595669
0.0621659
0.000880444
-0.0462985
0.0483576
-0.0212097
0.0220902
0.825155
-0.227746
0.817046
-0.225919
0.809004
-0.224107
0.801029
-0.222313
0.793121
-0.220535
0.785278
-0.218774
0.777501
-0.21703
0.769789
-0.2153
0.76214
-0.213587
0.754555
-0.211889
0.747033
-0.210206
0.739573
-0.208538
0.732175
-0.206885
0.724837
-0.205247
0.71756
-0.203623
0.710342
-0.202014
0.703184
-0.200419
0.696085
-0.198839
0.689043
-0.197272
0.682059
-0.195718
0.675132
-0.194179
0.668262
-0.192652
0.661448
-0.191139
0.654689
-0.189639
0.647984
-0.188152
0.641335
-0.186677
0.634739
-0.185215
0.628196
-0.183765
0.621706
-0.182327
0.615269
-0.180901
0.608883
-0.179487
0.602549
-0.178085
0.596265
-0.176694
0.590032
-0.175315
0.583849
-0.173947
0.577715
-0.17259
0.57163
-0.171244
0.565593
-0.169908
0.559604
-0.168584
0.553663
-0.16727
0.547769
-0.165967
0.541922
-0.164674
0.536121
-0.163391
0.530365
-0.162119
0.524656
-0.160857
0.518991
-0.159604
0.51337
-0.158362
0.507794
-0.157129
0.502262
-0.155906
0.496773
-0.154693
0.491327
-0.153489
0.485924
-0.152295
0.480563
-0.15111
0.475243
-0.149935
0.469966
-0.148768
0.464729
-0.147611
0.459534
-0.146464
0.454379
-0.145325
0.449264
-0.144195
0.444188
-0.143074
0.439153
-0.141962
0.434156
-0.140859
0.429198
-0.139765
0.424279
-0.138679
0.419398
-0.137602
0.414555
-0.136534
0.409749
-0.135474
0.404981
-0.134423
0.40025
-0.133381
0.395555
-0.132346
0.390896
-0.13132
0.386274
-0.130303
0.381688
-0.129293
0.377137
-0.128292
0.372621
-0.127299
0.36814
-0.126314
0.363694
-0.125338
0.359282
-0.124369
0.354905
-0.123408
0.350561
-0.122455
0.346251
-0.12151
0.341974
-0.120572
0.33773
-0.119643
0.333518
-0.118721
0.32934
-0.117806
0.325193
-0.1169
0.321079
-0.116
0.316996
-0.115109
0.312945
-0.114224
0.308925
-0.113347
0.304935
-0.112478
0.300977
-0.111615
0.297049
-0.11076
0.293151
-0.109912
0.289283
-0.109071
0.285445
-0.108237
0.281637
-0.107411
0.277857
-0.106591
0.274107
-0.105778
0.270385
-0.104971
0.266692
-0.104172
0.263027
-0.10338
0.25939
-0.102594
0.255781
-0.101815
0.252199
-0.101042
0.248645
-0.100276
0.245118
-0.0995165
0.241617
-0.0987636
0.238144
-0.0980171
0.234696
-0.097277
0.231275
-0.0965434
0.22788
-0.095816
0.224511
-0.095095
0.221167
-0.0943802
0.217848
-0.0936717
0.214555
-0.0929694
0.211286
-0.0922732
0.208042
-0.0915832
0.204822
-0.0908993
0.201627
-0.0902215
0.198455
-0.0895498
0.195307
-0.0888841
0.192183
-0.0882244
0.189082
-0.0875707
0.186004
-0.086923
0.182949
-0.0862812
0.179917
-0.0856454
0.176907
-0.0850155
0.173919
-0.0843914
0.170953
-0.0837733
0.168009
-0.0831611
0.165087
-0.0825547
0.162186
-0.0819542
0.159306
-0.0813596
0.156447
-0.0807709
0.15361
-0.0801881
0.150793
-0.0796113
0.147996
-0.0790403
0.14522
-0.0784753
0.142464
-0.0779161
0.139727
-0.0773628
0.137009
-0.0768154
0.13431
-0.076274
0.131631
-0.0757387
0.12897
-0.0752093
0.126327
-0.074686
0.123703
-0.0741689
0.121097
-0.0736579
0.118509
-0.0731532
0.115938
-0.0726548
0.113385
-0.0721627
0.110849
-0.0716771
0.108329
-0.071198
0.105826
-0.0707256
0.10334
-0.07026
0.100869
-0.0698012
0.0984144
-0.0693494
0.0959752
-0.0689048
0.0935512
-0.0684676
0.0911421
-0.068038
0.0887477
-0.067616
0.0863675
-0.0672021
0.0840013
-0.0667965
0.0816488
-0.0663994
0.0793095
-0.0660111
0.0769831
-0.0656322
0.0746692
-0.0652628
0.0723674
-0.0649036
0.0700772
-0.0645551
0.0677981
-0.0642177
0.0655297
-0.0638922
0.0632713
-0.0635792
0.0610224
-0.0632797
0.0587822
-0.0629945
0.0565502
-0.0627246
0.0543255
-0.0624714
0.0521072
-0.062236
0.0498943
-0.0620202
0.0476858
-0.0618256
0.0454803
-0.0616543
0.0432767
-0.0615087
0.0410731
-0.0613914
0.0388679
-0.0613056
0.0366589
-0.061255
0.0344438
-0.0612439
0.0322196
-0.0612773
0.029983
-0.0613611
0.0277302
-0.0615023
0.0254563
-0.0617093
0.0231557
-0.061992
0.0208214
-0.0623622
0.0184446
-0.0628319
0.0160138
-0.063405
0.0135134
-0.0640455
0.0109264
-0.0645844
0.00824962
-0.0645142
0.00554267
-0.06265
0.0029689
-0.0569931
0.000912537
-0.0442421
-0.0202972
0.82516
-0.219573
0.817054
-0.217814
0.809016
-0.216069
0.801045
-0.214341
0.793139
-0.21263
0.785299
-0.210934
0.777524
-0.209255
0.769813
-0.20759
0.762166
-0.20594
0.754582
-0.204305
0.747061
-0.202684
0.739602
-0.201079
0.732204
-0.199487
0.724867
-0.19791
0.71759
-0.196347
0.710373
-0.194797
0.703216
-0.193262
0.696117
-0.19174
0.689076
-0.190231
0.682093
-0.188735
0.675167
-0.187253
0.668298
-0.185783
0.661485
-0.184326
0.654727
-0.182881
0.648024
-0.181448
0.641375
-0.180028
0.63478
-0.17862
0.628239
-0.177223
0.62175
-0.175838
0.615313
-0.174465
0.608929
-0.173102
0.602595
-0.171751
0.596313
-0.170412
0.590081
-0.169082
0.583898
-0.167764
0.577765
-0.166457
0.571681
-0.165159
0.565645
-0.163873
0.559657
-0.162596
0.553717
-0.16133
0.547823
-0.160074
0.541977
-0.158827
0.536176
-0.157591
0.530422
-0.156364
0.524712
-0.155147
0.519048
-0.15394
0.513428
-0.152742
0.507852
-0.151553
0.50232
-0.150374
0.496832
-0.149204
0.491386
-0.148044
0.485983
-0.146892
0.480622
-0.145749
0.475303
-0.144616
0.470026
-0.143491
0.464789
-0.142375
0.459594
-0.141268
0.454439
-0.14017
0.449323
-0.13908
0.444248
-0.137999
0.439212
-0.136926
0.434216
-0.135863
0.429258
-0.134807
0.424339
-0.13376
0.419457
-0.132721
0.414614
-0.131691
0.409808
-0.130669
0.40504
-0.129655
0.400308
-0.128649
0.395613
-0.127651
0.390955
-0.126662
0.386332
-0.12568
0.381746
-0.124707
0.377194
-0.123741
0.372678
-0.122783
0.368197
-0.121833
0.363751
-0.120891
0.359339
-0.119957
0.354961
-0.11903
0.350617
-0.118111
0.346307
-0.117199
0.342029
-0.116295
0.337785
-0.115398
0.333574
-0.114509
0.329395
-0.113627
0.325248
-0.112753
0.321134
-0.111886
0.317051
-0.111026
0.312999
-0.110173
0.308979
-0.109327
0.30499
-0.108488
0.301031
-0.107657
0.297103
-0.106832
0.293205
-0.106014
0.289337
-0.105203
0.285499
-0.104399
0.28169
-0.103602
0.27791
-0.102811
0.27416
-0.102027
0.270438
-0.10125
0.266745
-0.100479
0.26308
-0.0997145
0.259443
-0.0989567
0.255833
-0.0982053
0.252252
-0.0974603
0.248697
-0.0967216
0.24517
-0.0959893
0.24167
-0.0952632
0.238196
-0.0945434
0.234749
-0.0938297
0.231328
-0.0931222
0.227932
-0.0924208
0.224563
-0.0917255
0.221219
-0.0910362
0.2179
-0.090353
0.214606
-0.0896757
0.211338
-0.0890044
0.208093
-0.088339
0.204874
-0.0876795
0.201678
-0.0870259
0.198506
-0.0863781
0.195358
-0.0857361
0.192234
-0.0850999
0.189133
-0.0844695
0.186054
-0.0838449
0.182999
-0.083226
0.179967
-0.0826128
0.176956
-0.0820053
0.173968
-0.0814035
0.171002
-0.0808074
0.168058
-0.0802169
0.165136
-0.0796321
0.162235
-0.079053
0.159355
-0.0784796
0.156495
-0.0779118
0.153657
-0.0773497
0.150839
-0.0767932
0.148041
-0.0762424
0.145263
-0.0756973
0.142505
-0.0751579
0.139766
-0.0746242
0.137047
-0.0740962
0.134347
-0.073574
0.131666
-0.0730575
0.129004
-0.0725469
0.12636
-0.0720421
0.123734
-0.0715433
0.121127
-0.0710503
0.118537
-0.0705634
0.115964
-0.0700825
0.11341
-0.0696078
0.110872
-0.0691392
0.108351
-0.068677
0.105846
-0.0682211
0.103358
-0.0677717
0.100886
-0.067329
0.0984292
-0.066893
0.0959883
-0.0664639
0.0935625
-0.0660419
0.0911517
-0.0656271
0.0887555
-0.0652198
0.0863735
-0.0648202
0.0840056
-0.0644285
0.0816512
-0.064045
0.0793101
-0.06367
0.0769818
-0.0633039
0.0746661
-0.0629471
0.0723624
-0.0625999
0.0700702
-0.0622629
0.0677892
-0.0619367
0.0655188
-0.0616218
0.0632585
-0.0613189
0.0610076
-0.0610288
0.0587655
-0.0607524
0.0565314
-0.0604906
0.0543046
-0.0602446
0.0520842
-0.0600157
0.0498692
-0.0598052
0.0476586
-0.059615
0.045451
-0.0594468
0.0432452
-0.0593029
0.0410396
-0.0591857
0.0388322
-0.0590983
0.0366212
-0.059044
0.0344039
-0.0590267
0.0321778
-0.0590511
0.0299394
-0.0591227
0.027685
-0.0592478
0.0254098
-0.0594341
0.0231083
-0.0596906
0.0207739
-0.0600278
0.0183979
-0.0604559
0.0159693
-0.0609764
0.0134733
-0.0615495
0.0108944
-0.0620055
0.00823156
-0.0618514
0.00554642
-0.0599649
0.00299255
-0.0544392
0.000940275
-0.0421899
-0.0193569
0.825164
-0.211403
0.817063
-0.209712
0.809029
-0.208035
0.801061
-0.206374
0.79316
-0.204729
0.785324
-0.203099
0.777554
-0.201484
0.769848
-0.199884
0.762206
-0.198298
0.754627
-0.196726
0.747111
-0.195168
0.739657
-0.193625
0.732265
-0.192095
0.724933
-0.190579
0.717662
-0.189076
0.710451
-0.187586
0.703299
-0.18611
0.696205
-0.184646
0.68917
-0.183196
0.682192
-0.181757
0.675271
-0.180332
0.668406
-0.178918
0.661597
-0.177517
0.654843
-0.176127
0.648144
-0.174749
0.641499
-0.173383
0.634907
-0.172028
0.628369
-0.170685
0.621883
-0.169352
0.61545
-0.168031
0.609068
-0.16672
0.602737
-0.16542
0.596456
-0.164131
0.590226
-0.162852
0.584045
-0.161584
0.577914
-0.160325
0.571831
-0.159077
0.565797
-0.157838
0.55981
-0.15661
0.553871
-0.155391
0.547979
-0.154181
0.542133
-0.152982
0.536334
-0.151791
0.530579
-0.15061
0.524871
-0.149439
0.519207
-0.148276
0.513587
-0.147122
0.508011
-0.145978
0.502479
-0.144842
0.496991
-0.143716
0.491545
-0.142598
0.486141
-0.141489
0.48078
-0.140388
0.47546
-0.139296
0.470182
-0.138213
0.464945
-0.137138
0.459749
-0.136072
0.454593
-0.135014
0.449477
-0.133964
0.444401
-0.132923
0.439364
-0.13189
0.434367
-0.130865
0.429408
-0.129848
0.424487
-0.128839
0.419605
-0.127839
0.41476
-0.126846
0.409953
-0.125862
0.405183
-0.124885
0.40045
-0.123916
0.395754
-0.122955
0.391094
-0.122002
0.38647
-0.121056
0.381882
-0.120118
0.377329
-0.119188
0.372811
-0.118266
0.368329
-0.117351
0.363881
-0.116443
0.359467
-0.115543
0.355087
-0.11465
0.350741
-0.113765
0.346429
-0.112887
0.34215
-0.112016
0.337904
-0.111152
0.333691
-0.110296
0.32951
-0.109447
0.325362
-0.108604
0.321245
-0.107769
0.31716
-0.106941
0.313107
-0.106119
0.309085
-0.105305
0.305093
-0.104497
0.301133
-0.103696
0.297203
-0.102902
0.293303
-0.102114
0.289433
-0.101333
0.285593
-0.100559
0.281782
-0.099791
0.278
-0.0990295
0.274248
-0.0982745
0.270524
-0.0975258
0.266828
-0.0967835
0.263161
-0.0960474
0.259522
-0.0953176
0.255911
-0.094594
0.252327
-0.0938766
0.248771
-0.0931652
0.245242
-0.09246
0.241739
-0.0917608
0.238263
-0.0910676
0.234814
-0.0903803
0.231391
-0.089699
0.227994
-0.0890235
0.224622
-0.088354
0.221276
-0.0876902
0.217955
-0.0870322
0.21466
-0.08638
0.211389
-0.0857335
0.208142
-0.0850928
0.204921
-0.0844577
0.201723
-0.0838282
0.198549
-0.0832044
0.195399
-0.0825861
0.192273
-0.0819735
0.18917
-0.0813664
0.18609
-0.0807648
0.183032
-0.0801688
0.179998
-0.0795782
0.176986
-0.0789932
0.173996
-0.0784136
0.171028
-0.0778395
0.168082
-0.0772708
0.165157
-0.0767076
0.162254
-0.0761499
0.159372
-0.0755976
0.156511
-0.0750507
0.153671
-0.0745093
0.150851
-0.0739734
0.148051
-0.0734429
0.145272
-0.0729178
0.142512
-0.0723982
0.139772
-0.0718841
0.137051
-0.0713755
0.13435
-0.0708725
0.131667
-0.070375
0.129004
-0.0698831
0.126358
-0.0693968
0.123731
-0.0689162
0.121122
-0.0684413
0.118531
-0.0679721
0.115957
-0.0675088
0.113401
-0.0670513
0.110861
-0.0665998
0.108339
-0.0661544
0.105833
-0.0657151
0.103343
-0.065282
0.100869
-0.0648553
0.0984114
-0.0644351
0.095969
-0.0640215
0.0935418
-0.0636147
0.0911296
-0.0632149
0.0887319
-0.0628221
0.0863485
-0.0624368
0.0839791
-0.062059
0.0816232
-0.0616892
0.0792807
-0.0613274
0.076951
-0.0609742
0.0746337
-0.0606298
0.0723285
-0.0602947
0.0700349
-0.0599693
0.0677524
-0.0596542
0.0654805
-0.0593499
0.0632186
-0.059057
0.0609661
-0.0587763
0.0587224
-0.0585087
0.0564868
-0.0582549
0.0542584
-0.0580162
0.0520363
-0.0577936
0.0498197
-0.0575886
0.0476074
-0.0574026
0.0453982
-0.0572375
0.0431906
-0.0570953
0.0409833
-0.0569783
0.0387742
-0.0568893
0.0365615
-0.0568312
0.0343427
-0.0568079
0.0321151
-0.0568235
0.0298754
-0.056883
0.0276198
-0.0569923
0.0253439
-0.0571582
0.0230422
-0.0573889
0.0207082
-0.0576938
0.0183338
-0.0580815
0.0159081
-0.0585507
0.0134172
-0.0590586
0.0108466
-0.0594349
0.00819745
-0.0592022
0.00553113
-0.0572986
0.00299648
-0.0519046
0.000952795
-0.0401462
-0.0184041
0.825168
-0.203238
0.817071
-0.201615
0.809041
-0.200005
0.801077
-0.198411
0.79318
-0.196831
0.785348
-0.195267
0.777582
-0.193717
0.769879
-0.192181
0.76224
-0.190659
0.754665
-0.18915
0.747152
-0.187655
0.7397
-0.186173
0.73231
-0.184705
0.724981
-0.183249
0.717712
-0.181806
0.710502
-0.180376
0.703351
-0.178959
0.696259
-0.177554
0.689224
-0.176161
0.682247
-0.17478
0.675326
-0.173411
0.668462
-0.172054
0.661653
-0.170708
0.654899
-0.169374
0.648201
-0.16805
0.641556
-0.166738
0.634965
-0.165437
0.628427
-0.164147
0.621941
-0.162867
0.615508
-0.161598
0.609127
-0.160339
0.602796
-0.15909
0.596516
-0.157851
0.590286
-0.156622
0.584106
-0.155403
0.577975
-0.154194
0.571893
-0.152994
0.565859
-0.151804
0.559872
-0.150623
0.553933
-0.149452
0.548041
-0.148289
0.542195
-0.147136
0.536396
-0.145992
0.530641
-0.144856
0.524932
-0.143729
0.519268
-0.142612
0.513648
-0.141502
0.508072
-0.140402
0.50254
-0.13931
0.497051
-0.138226
0.491604
-0.137151
0.4862
-0.136085
0.480839
-0.135026
0.475518
-0.133976
0.47024
-0.132934
0.465002
-0.1319
0.459805
-0.130875
0.454648
-0.129857
0.449532
-0.128847
0.444455
-0.127846
0.439417
-0.126852
0.434419
-0.125866
0.429459
-0.124888
0.424538
-0.123918
0.419654
-0.122956
0.414809
-0.122001
0.410001
-0.121054
0.40523
-0.120114
0.400496
-0.119182
0.395799
-0.118258
0.391138
-0.117341
0.386513
-0.116431
0.381923
-0.115529
0.37737
-0.114635
0.372851
-0.113747
0.368367
-0.112867
0.363918
-0.111994
0.359504
-0.111128
0.355123
-0.11027
0.350776
-0.109418
0.346463
-0.108574
0.342183
-0.107736
0.337936
-0.106906
0.333722
-0.106082
0.32954
-0.105265
0.325391
-0.104455
0.321273
-0.103652
0.317187
-0.102855
0.313133
-0.102065
0.30911
-0.101282
0.305117
-0.100505
0.301156
-0.0997347
0.297225
-0.0989709
0.293324
-0.0982135
0.289453
-0.0974624
0.285612
-0.0967177
0.2818
-0.0959792
0.278017
-0.095247
0.274264
-0.0945209
0.270539
-0.093801
0.266843
-0.0930871
0.263175
-0.0923794
0.259535
-0.0916776
0.255922
-0.0909818
0.252338
-0.0902919
0.24878
-0.0896079
0.24525
-0.0889297
0.241747
-0.0882573
0.23827
-0.0875908
0.234819
-0.0869299
0.231395
-0.0862747
0.227997
-0.0856252
0.224624
-0.0849814
0.221277
-0.0843431
0.217955
-0.0837104
0.214659
-0.0830833
0.211387
-0.0824616
0.208139
-0.0818454
0.204916
-0.0812347
0.201718
-0.0806294
0.198543
-0.0800295
0.195392
-0.079435
0.192264
-0.0788459
0.18916
-0.078262
0.186078
-0.0776835
0.18302
-0.0771104
0.179984
-0.0765425
0.176971
-0.0759798
0.17398
-0.0754225
0.17101
-0.0748704
0.168063
-0.0743235
0.165137
-0.0737819
0.162233
-0.0732455
0.15935
-0.0727143
0.156487
-0.0721883
0.153645
-0.0716676
0.150824
-0.0711521
0.148023
-0.0706419
0.145242
-0.0701369
0.142481
-0.0696371
0.13974
-0.0691426
0.137018
-0.0686534
0.134315
-0.0681695
0.131631
-0.0676909
0.128965
-0.0672177
0.126318
-0.0667499
0.12369
-0.0662876
0.121079
-0.0658307
0.118486
-0.0653793
0.115911
-0.0649335
0.113353
-0.0644934
0.110812
-0.064059
0.108288
-0.0636304
0.105781
-0.0632077
0.10329
-0.0627909
0.100815
-0.0623803
0.0983555
-0.0619758
0.0959116
-0.0615777
0.093483
-0.0611861
0.0910694
-0.0608012
0.0886703
-0.0604231
0.0862855
-0.060052
0.0839147
-0.0596882
0.0815574
-0.0593319
0.0792135
-0.0589835
0.0768824
-0.0586431
0.0745638
-0.0583112
0.0722572
-0.0579881
0.0699622
-0.0576744
0.0676783
-0.0573703
0.065405
-0.0570766
0.0631418
-0.0567937
0.0608879
-0.0565225
0.0586428
-0.0562636
0.0564058
-0.0560179
0.054176
-0.0557864
0.0519526
-0.0555702
0.0497345
-0.0553706
0.0475208
-0.0551889
0.0453102
-0.0550269
0.0431014
-0.0548865
0.0408927
-0.0547697
0.0386824
-0.054679
0.0364685
-0.0546173
0.0342486
-0.0545881
0.0320201
-0.054595
0.0297797
-0.0546426
0.0275238
-0.0547364
0.025248
-0.0548824
0.0229471
-0.055088
0.0206148
-0.0553615
0.0182432
-0.0557098
0.0158219
-0.0561295
0.0133377
-0.0565745
0.0107776
-0.0568747
0.00814417
-0.0565688
0.00549812
-0.0546525
0.00298592
-0.0493924
0.000956739
-0.038117
-0.0174474
0.825172
-0.195077
0.817079
-0.193522
0.809053
-0.191979
0.801093
-0.190451
0.7932
-0.188938
0.785372
-0.187439
0.777608
-0.185954
0.76991
-0.184482
0.762274
-0.183024
0.754702
-0.181578
0.747192
-0.180145
0.739744
-0.178725
0.732357
-0.177318
0.725031
-0.175923
0.717765
-0.17454
0.710558
-0.17317
0.703411
-0.171811
0.696322
-0.170465
0.68929
-0.16913
0.682316
-0.167806
0.675399
-0.166494
0.668538
-0.165193
0.661732
-0.163902
0.654982
-0.162623
0.648286
-0.161355
0.641644
-0.160097
0.635056
-0.158849
0.628521
-0.157611
0.622038
-0.156384
0.615607
-0.155167
0.609227
-0.153959
0.602898
-0.152761
0.59662
-0.151573
0.590391
-0.150394
0.584212
-0.149224
0.578082
-0.148064
0.572001
-0.146913
0.565967
-0.145771
0.559981
-0.144637
0.554042
-0.143513
0.54815
-0.142397
0.542304
-0.14129
0.536504
-0.140192
0.53075
-0.139102
0.52504
-0.13802
0.519375
-0.136947
0.513755
-0.135882
0.508178
-0.134825
0.502645
-0.133777
0.497155
-0.132736
0.491708
-0.131704
0.486303
-0.13068
0.48094
-0.129663
0.475618
-0.128655
0.470339
-0.127654
0.4651
-0.126661
0.459901
-0.125676
0.454743
-0.124699
0.449625
-0.123729
0.444547
-0.122767
0.439508
-0.121813
0.434507
-0.120866
0.429546
-0.119927
0.424623
-0.118995
0.419738
-0.118071
0.414891
-0.117154
0.410081
-0.116244
0.405308
-0.115341
0.400573
-0.114446
0.395874
-0.113559
0.391211
-0.112678
0.386584
-0.111805
0.381993
-0.110938
0.377437
-0.110079
0.372917
-0.109227
0.368431
-0.108381
0.36398
-0.107543
0.359564
-0.106712
0.355181
-0.105887
0.350832
-0.105069
0.346517
-0.104258
0.342235
-0.103454
0.337986
-0.102657
0.33377
-0.101866
0.329586
-0.101081
0.325435
-0.100303
0.321315
-0.0995322
0.317228
-0.0987673
0.313171
-0.0980088
0.309146
-0.0972566
0.305152
-0.0965108
0.301189
-0.0957712
0.297256
-0.0950378
0.293353
-0.0943106
0.28948
-0.0935895
0.285637
-0.0928745
0.281823
-0.0921655
0.278038
-0.0914625
0.274283
-0.0907654
0.270556
-0.0900742
0.266858
-0.0893889
0.263188
-0.0887094
0.259546
-0.0880356
0.255932
-0.0873676
0.252345
-0.0867053
0.248786
-0.0860486
0.245254
-0.0853975
0.241748
-0.084752
0.23827
-0.0841121
0.234817
-0.0834776
0.231391
-0.0828486
0.227991
-0.0822251
0.224617
-0.0816069
0.221268
-0.0809942
0.217944
-0.0803868
0.214645
-0.0797846
0.211372
-0.0791878
0.208123
-0.0785962
0.204898
-0.0780099
0.201697
-0.0774288
0.19852
-0.0768528
0.195368
-0.0762821
0.192238
-0.0757164
0.189132
-0.0751559
0.186049
-0.0746005
0.182989
-0.0740502
0.179951
-0.0735049
0.176936
-0.0729647
0.173943
-0.0724296
0.170972
-0.0718995
0.168023
-0.0713744
0.165096
-0.0708543
0.162189
-0.0703393
0.159304
-0.0698292
0.15644
-0.0693242
0.153597
-0.0688242
0.150774
-0.0683292
0.147971
-0.0678392
0.145188
-0.0673542
0.142426
-0.0668743
0.139682
-0.0663994
0.136959
-0.0659296
0.134254
-0.0654648
0.131568
-0.0650052
0.128901
-0.0645507
0.126253
-0.0641014
0.123622
-0.0636573
0.12101
-0.0632185
0.118416
-0.0627849
0.115839
-0.0623567
0.113279
-0.0619339
0.110737
-0.0615165
0.108211
-0.0611048
0.105702
-0.0606986
0.10321
-0.0602982
0.100733
-0.0599036
0.0982719
-0.0595149
0.0958265
-0.0591323
0.0933963
-0.0587559
0.0909811
-0.0583859
0.0885804
-0.0580224
0.0861941
-0.0576656
0.0838217
-0.0573158
0.0814629
-0.0569732
0.0791174
-0.056638
0.0767847
-0.0563105
0.0744646
-0.055991
0.0721565
-0.05568
0.06986
-0.0553778
0.0675745
-0.0550849
0.0652997
-0.0548018
0.063035
-0.054529
0.0607796
-0.0542671
0.058533
-0.054017
0.0562945
-0.0537794
0.0540632
-0.0535551
0.0518383
-0.0533453
0.0496189
-0.0531511
0.0474038
-0.0529738
0.0451918
-0.052815
0.0429817
-0.0526763
0.0407717
-0.0525597
0.0385603
-0.0524676
0.0363455
-0.0524025
0.0341248
-0.0523674
0.0318957
-0.0523659
0.0296551
-0.0524021
0.0273994
-0.0524807
0.0251244
-0.0526073
0.022825
-0.0527886
0.0204953
-0.0530317
0.0181276
-0.0533421
0.015712
-0.0537139
0.0132361
-0.0540986
0.0106881
-0.0543267
0.0080724
-0.053953
0.00544828
-0.0520284
0.0029621
-0.0469062
0.000953484
-0.0361084
-0.0164939
0.825176
-0.186919
0.817086
-0.185432
0.809064
-0.183957
0.801108
-0.182495
0.793218
-0.181048
0.785394
-0.179614
0.777634
-0.178194
0.769938
-0.176787
0.762306
-0.175392
0.754737
-0.174009
0.74723
-0.172638
0.739784
-0.17128
0.7324
-0.169934
0.725076
-0.168599
0.717813
-0.167277
0.710608
-0.165965
0.703462
-0.164666
0.696375
-0.163377
0.689345
-0.1621
0.682372
-0.160833
0.675456
-0.159577
0.668596
-0.158332
0.661791
-0.157098
0.655041
-0.155873
0.648346
-0.154659
0.641704
-0.153455
0.635115
-0.15226
0.62858
-0.151076
0.622097
-0.149901
0.615665
-0.148735
0.609285
-0.147579
0.602955
-0.146432
0.596676
-0.145294
0.590447
-0.144165
0.584267
-0.143045
0.578137
-0.141933
0.572054
-0.14083
0.56602
-0.139736
0.560033
-0.138651
0.554093
-0.137573
0.5482
-0.136504
0.542354
-0.135443
0.536553
-0.134391
0.530797
-0.133346
0.525087
-0.13231
0.519421
-0.131281
0.5138
-0.13026
0.508222
-0.129248
0.502688
-0.128242
0.497197
-0.127245
0.491748
-0.126256
0.486342
-0.125274
0.480978
-0.124299
0.475655
-0.123332
0.470374
-0.122373
0.465134
-0.121421
0.459934
-0.120477
0.454774
-0.11954
0.449655
-0.11861
0.444575
-0.117688
0.439534
-0.116772
0.434533
-0.115865
0.42957
-0.114964
0.424645
-0.11407
0.419759
-0.113184
0.41491
-0.112305
0.410099
-0.111433
0.405324
-0.110567
0.400587
-0.109709
0.395887
-0.108858
0.391222
-0.108014
0.386594
-0.107176
0.382001
-0.106346
0.377444
-0.105522
0.372922
-0.104705
0.368435
-0.103894
0.363982
-0.103091
0.359564
-0.102293
0.35518
-0.101503
0.35083
-0.100719
0.346513
-0.0999417
0.342229
-0.0991707
0.337979
-0.0984062
0.333761
-0.097648
0.329576
-0.0968961
0.325423
-0.0961505
0.321302
-0.0954112
0.317213
-0.094678
0.313155
-0.093951
0.309128
-0.09323
0.305133
-0.0925152
0.301168
-0.0918063
0.297233
-0.0911033
0.293329
-0.0904063
0.289455
-0.0897152
0.28561
-0.0890299
0.281795
-0.0883504
0.278009
-0.0876766
0.274252
-0.0870085
0.270524
-0.086346
0.266824
-0.0856892
0.263153
-0.0850379
0.259509
-0.0843922
0.255894
-0.083752
0.252306
-0.0831172
0.248745
-0.0824879
0.245211
-0.0818639
0.241705
-0.0812452
0.238225
-0.0806319
0.234771
-0.0800239
0.231343
-0.0794211
0.227942
-0.0788235
0.224566
-0.078231
0.221215
-0.0776438
0.21789
-0.0770616
0.21459
-0.0764846
0.211315
-0.0759126
0.208064
-0.0753456
0.204838
-0.0747836
0.201636
-0.0742267
0.198458
-0.0736747
0.195303
-0.0731276
0.192172
-0.0725855
0.189065
-0.0720483
0.18598
-0.0715159
0.182918
-0.0709885
0.179879
-0.0704659
0.176863
-0.0699481
0.173868
-0.0694351
0.170896
-0.068927
0.167945
-0.0684237
0.165016
-0.0679252
0.162108
-0.0674315
0.159222
-0.0669426
0.156356
-0.0664585
0.153511
-0.0659792
0.150687
-0.0655047
0.147882
-0.0650349
0.145098
-0.06457
0.142334
-0.0641099
0.139589
-0.0636546
0.136864
-0.0632042
0.134157
-0.0627586
0.13147
-0.062318
0.128802
-0.0618822
0.126151
-0.0614514
0.12352
-0.0610255
0.120906
-0.0606047
0.11831
-0.060189
0.115732
-0.0597783
0.113171
-0.0593728
0.110627
-0.0589726
0.108099
-0.0585776
0.105589
-0.058188
0.103095
-0.0578039
0.100616
-0.0574254
0.098154
-0.0570525
0.0957071
-0.0566854
0.0932754
-0.0563242
0.0908587
-0.0559692
0.0884565
-0.0556203
0.0860687
-0.0552778
0.0836949
-0.054942
0.0813346
-0.0546129
0.0789877
-0.054291
0.0766536
-0.0539764
0.074332
-0.0536694
0.0720224
-0.0533705
0.0697245
-0.0530799
0.0674377
-0.0527981
0.0651615
-0.0525255
0.0628953
-0.0522628
0.0606385
-0.0520104
0.0583906
-0.051769
0.0561507
-0.0515395
0.0539181
-0.0513225
0.0516919
-0.0511191
0.0494712
-0.0509304
0.0472549
-0.0507575
0.0450418
-0.0506019
0.0428306
-0.0504651
0.0406197
-0.0503489
0.0384075
-0.0502554
0.036192
-0.0501869
0.0339709
-0.0501463
0.0317418
-0.0501367
0.0295015
-0.0501618
0.0272467
-0.0502258
0.0249732
-0.0503339
0.0226763
-0.0504917
0.0203502
-0.0507056
0.0179875
-0.0509795
0.015579
-0.0513054
0.013113
-0.0516326
0.0105791
-0.0517928
0.00798304
-0.051357
0.00538298
-0.0494284
0.00292688
-0.0444501
0.000944531