/*--------------------------------*- C++ -*----------------------------------*\
| =========                 |                                                 |
| \\      /  F ield         | OpenFOAM: The Open Source CFD Toolbox           |
|  \\    /   O peration     | Version:  2.3.1                                 |
|   \\  /    A nd           | Web:      www.OpenFOAM.org                      |
|    \\/     M anipulation  |                                                 |
\*---------------------------------------------------------------------------*/
FoamFile
{
    version     2.0;
    format      ascii;
    class       volVectorField;
    location    "1000";
    object      U;
}
// * * * * * * * * * * * * * * * * * * * * * * * * * * * * * * * * * * * * * //

dimensions      [0 1 -1 0 0 0 0];

internalField   nonuniform List<vector> 
66000
(
(1 -2.37135e-06 -4.94349e-21)
(1 -1.07929e-05 -2.05933e-23)
(1.00001 -2.38948e-05 4.19265e-23)
(1.00002 -4.21553e-05 -5.50154e-21)
(1.00003 -6.57881e-05 0)
(1.00004 -9.51832e-05 0)
(1.00005 -0.000132373 5.73952e-21)
(1.00007 -0.000176882 -6.01988e-21)
(1.00009 -0.000228351 5.93839e-21)
(1.00012 -0.000286527 1.89044e-22)
(1.00014 -0.000351233 -6.17233e-21)
(1.00017 -0.000422338 -2.21188e-22)
(1.00021 -0.000499744 1.9932e-22)
(1.00024 -0.000583366 -6.4827e-21)
(1.00028 -0.000673124 -6.83667e-21)
(1.00032 -0.000768933 -6.9272e-21)
(1.00036 -0.000870696 7.69379e-21)
(1.0004 -0.000978307 6.52477e-21)
(1.00045 -0.00109164 7.08623e-21)
(1.0005 -0.00121057 -7.25686e-21)
(1.00055 -0.00133492 -6.88504e-21)
(1.0006 -0.00146455 7.05737e-21)
(1.00066 -0.00159926 4.77187e-22)
(1.00071 -0.00173888 7.2683e-21)
(1.00077 -0.00188322 -7.89586e-21)
(1.00083 -0.00203208 -1.5634e-20)
(1.00089 -0.00218526 -5.12986e-22)
(1.00096 -0.00234258 8.8621e-21)
(1.00102 -0.00250383 -5.32138e-22)
(1.00109 -0.00266884 1.73681e-20)
(1.00116 -0.00283742 8.88079e-21)
(1.00122 -0.0030094 0)
(1.00129 -0.00318462 -8.56899e-21)
(1.00136 -0.00336291 -5.83647e-22)
(1.00144 -0.00354413 0)
(1.00151 -0.00372814 4.87525e-21)
(1.00158 -0.00391483 -5.58573e-21)
(1.00165 -0.00410408 -4.43362e-21)
(1.00173 -0.00429578 0)
(1.0018 -0.00448987 5.86329e-21)
(1.00187 -0.00468626 3.97693e-21)
(1.00195 -0.0048849 5.40956e-21)
(1.00202 -0.00508574 1.38354e-21)
(1.0021 -0.00528877 -1.20008e-20)
(1.00217 -0.00549396 -5.72856e-21)
(1.00224 -0.00570132 1.17387e-20)
(1.00231 -0.00591086 0)
(1.00239 -0.00612261 0)
(1.00246 -0.00633662 7.77096e-22)
(1.00253 -0.00655293 -1.34775e-20)
(1.0026 -0.0067716 -7.31195e-21)
(1.00266 -0.00699272 8.22848e-22)
(1.00273 -0.00721638 0)
(1.0028 -0.00744266 7.82387e-23)
(1.00286 -0.00767169 -7.91524e-21)
(1.00292 -0.00790359 8.07363e-21)
(1.00299 -0.00813849 0)
(1.00305 -0.00837653 -1.48668e-20)
(1.0031 -0.00861786 9.4768e-22)
(1.00316 -0.00886265 6.82272e-21)
(1.00321 -0.00911106 -1.67852e-20)
(1.00327 -0.00936328 1.00525e-21)
(1.00332 -0.00961948 -8.28201e-21)
(1.00336 -0.00987987 9.50474e-21)
(1.00341 -0.0101446 7.56333e-21)
(1.00345 -0.010414 8.81448e-21)
(1.00349 -0.0106881 0)
(1.00353 -0.0109672 -1.14093e-21)
(1.00357 -0.0112516 1.16226e-21)
(1.0036 -0.0115413 9.45632e-21)
(1.00363 -0.0118367 -9.65846e-21)
(1.00366 -0.012138 -1.24199e-21)
(1.00369 -0.0124454 2.5343e-21)
(1.00371 -0.012759 1.04552e-20)
(1.00373 -0.0130792 -2.64608e-21)
(1.00374 -0.0134062 -9.56712e-21)
(1.00376 -0.0137401 -5.57979e-21)
(1.00377 -0.0140813 0)
(1.00378 -0.0144298 0)
(1.00378 -0.0147861 0)
(1.00378 -0.0151502 -6.00015e-21)
(1.00378 -0.0155224 -1.54673e-21)
(1.00377 -0.015903 3.26439e-21)
(1.00376 -0.0162922 -1.6123e-21)
(1.00374 -0.0166901 0)
(1.00373 -0.0170972 0)
(1.0037 -0.0175135 0)
(1.00368 -0.0179393 5.38458e-21)
(1.00365 -0.0183749 -7.55391e-24)
(1.00361 -0.0188206 1.67191e-20)
(1.00357 -0.0192765 0)
(1.00353 -0.0197429 -1.47706e-22)
(1.00348 -0.0202202 1.99593e-21)
(1.00343 -0.0207085 -2.03484e-21)
(1.00337 -0.0212082 -2.09427e-21)
(1.00331 -0.0217195 -6.5298e-21)
(1.00324 -0.0222428 8.70164e-21)
(1.00317 -0.0227784 9.10186e-21)
(1.00309 -0.0233265 9.3306e-21)
(1.00301 -0.0238876 0)
(1.00292 -0.0244619 -9.60189e-21)
(1.00282 -0.0250498 -1.99064e-20)
(1.00272 -0.0256518 -2.55376e-21)
(1.00261 -0.0262681 2.60458e-21)
(1.00249 -0.0268993 7.93412e-21)
(1.00237 -0.0275457 1.36398e-20)
(1.00224 -0.0282077 0)
(1.00211 -0.028886 -2.90625e-21)
(1.00196 -0.0295809 2.96476e-21)
(1.00181 -0.030293 -3.06433e-21)
(1.00165 -0.0310228 -2.20288e-20)
(1.00148 -0.0317709 0)
(1.00131 -0.0325378 3.3589e-22)
(1.00112 -0.0333243 0)
(1.00093 -0.034131 -1.38412e-20)
(1.00072 -0.0349585 0)
(1.00051 -0.0358076 0)
(1.00029 -0.036679 -1.54551e-20)
(1.00005 -0.0375735 1.59023e-20)
(0.999806 -0.0384921 8.18303e-21)
(0.999549 -0.0394355 2.48019e-20)
(0.99928 -0.0404047 2.44592e-22)
(0.998999 -0.0414006 0)
(0.998705 -0.0424244 4.80779e-21)
(0.998398 -0.0434769 4.1562e-23)
(0.998078 -0.0445595 -2.40282e-20)
(0.997742 -0.0456733 9.76873e-21)
(0.997393 -0.0468195 -1.00687e-20)
(0.997027 -0.0479994 -1.07119e-20)
(0.996646 -0.0492145 0)
(0.996247 -0.0504661 1.10417e-20)
(0.995831 -0.0517559 0)
(0.995397 -0.0530854 0)
(0.994944 -0.0544561 0)
(0.994471 -0.0558702 0)
(0.993976 -0.0573306 0)
(0.993458 -0.0588379 2.72141e-20)
(0.99292 -0.0603952 1.38141e-20)
(0.992361 -0.0620072 1.47934e-20)
(0.991779 -0.0636748 -7.53241e-21)
(0.991173 -0.0653997 7.69625e-21)
(0.99054 -0.0671841 2.383e-20)
(0.98988 -0.0690308 8.70498e-21)
(0.989191 -0.0709427 -1.68814e-20)
(0.988471 -0.0729231 1.74727e-20)
(0.987719 -0.0749755 1.88081e-20)
(0.986934 -0.0771035 -9.14735e-21)
(0.986113 -0.079311 -9.8003e-21)
(0.985256 -0.0816021 2.01102e-20)
(0.98436 -0.0839813 2.61834e-20)
(0.983424 -0.0864533 -5.45889e-21)
(0.982445 -0.0890232 2.33728e-20)
(0.981421 -0.0916963 0)
(0.980351 -0.0944784 0)
(0.979231 -0.0973759 6.42667e-21)
(0.978059 -0.100395 -2.7075e-20)
(0.976833 -0.103544 -1.37639e-20)
(0.975548 -0.106829 3.64504e-20)
(0.974204 -0.11026 -8.85756e-21)
(0.972795 -0.113846 -2.40768e-20)
(0.971318 -0.117595 8.10249e-21)
(0.969771 -0.121519 -8.29169e-21)
(0.968147 -0.12563 1.78806e-20)
(0.966445 -0.12994 4.45715e-20)
(0.964658 -0.134463 1.85965e-20)
(0.962783 -0.139214 -1.96143e-20)
(0.960813 -0.144209 1.97944e-20)
(0.958743 -0.149466 4.81847e-22)
(0.956568 -0.155007 1.18337e-20)
(0.95428 -0.160851 -3.46488e-20)
(0.951874 -0.167024 -5.79425e-22)
(0.949341 -0.173553 1.23929e-20)
(0.946673 -0.180467 0)
(0.943862 -0.1878 1.43252e-20)
(0.940899 -0.195588 -2.93391e-20)
(0.937774 -0.203874 4.48371e-20)
(0.934476 -0.212705 4.68452e-20)
(0.930993 -0.222132 -1.56964e-20)
(0.927313 -0.232216 3.17999e-20)
(0.923422 -0.243025 8.54083e-21)
(0.919305 -0.254636 -8.74432e-21)
(0.914946 -0.267137 2.7394e-21)
(0.910328 -0.28063 0)
(0.905431 -0.295232 -6.43006e-21)
(0.900234 -0.311081 -2.79165e-20)
(0.894716 -0.328333 -9.97605e-21)
(0.888849 -0.347176 4.28967e-20)
(0.882609 -0.367829 1.02972e-20)
(0.875962 -0.390551 -4.31932e-20)
(0.868876 -0.415654 0)
(0.861311 -0.443508 -5.76322e-21)
(0.853205 -0.474549 0)
(0.844405 -0.509203 -3.67643e-20)
(0.834385 -0.547526 3.32562e-20)
(0.821315 -0.58811 3.48986e-20)
(0.800172 -0.625091 -3.98095e-21)
(0.757974 -0.644033 9.79769e-22)
(0.675134 -0.617356 1.02916e-20)
(0.514042 -0.501522 -2.20074e-20)
(0.23367 -0.235316 5.55763e-20)
(1.00001 -7.80663e-06 -4.97995e-21)
(1.00001 -2.99086e-05 -4.13036e-23)
(1.00002 -5.93882e-05 -2.48109e-26)
(1.00002 -9.75847e-05 1.28453e-22)
(1.00004 -0.000143124 -5.67837e-21)
(1.00005 -0.00019787 -8.87966e-23)
(1.00007 -0.000258266 9.02648e-23)
(1.0001 -0.000324299 0)
(1.00012 -0.000396053 5.99957e-21)
(1.00015 -0.000473631 0)
(1.00018 -0.000557109 -3.20919e-23)
(1.00022 -0.000646522 6.10111e-21)
(1.00025 -0.000741864 2.00867e-22)
(1.00029 -0.000843094 0)
(1.00033 -0.000950144 6.43837e-21)
(1.00038 -0.00106292 6.81178e-21)
(1.00042 -0.0011813 -2.16265e-22)
(1.00047 -0.00130516 4.39924e-22)
(1.00052 -0.00143433 0)
(1.00057 -0.00156864 7.27641e-21)
(1.00063 -0.00170791 0)
(1.00068 -0.00185195 -7.54658e-21)
(1.00074 -0.00200056 0)
(1.0008 -0.00215355 -4.91488e-22)
(1.00086 -0.0023107 5.00272e-22)
(1.00092 -0.00247184 8.12103e-21)
(1.00098 -0.00263676 -5.19575e-22)
(1.00105 -0.00280528 -4.43333e-25)
(1.00111 -0.00297722 -8.12584e-21)
(1.00118 -0.0031524 -8.19543e-21)
(1.00125 -0.00333066 -9.46854e-21)
(1.00132 -0.00351186 5.70464e-22)
(1.00139 -0.00369584 -5.80739e-22)
(1.00146 -0.00388247 -5.92374e-22)
(1.00153 -0.00407164 -6.21558e-25)
(1.0016 -0.00426322 -8.60757e-21)
(1.00167 -0.00445714 4.98662e-21)
(1.00174 -0.00465329 4.44296e-21)
(1.00182 -0.00485162 0)
(1.00189 -0.00505206 0)
(1.00196 -0.00525458 0)
(1.00203 -0.00545914 0)
(1.0021 -0.00566575 0)
(1.00217 -0.00587438 4.98278e-21)
(1.00224 -0.00608508 7.30511e-22)
(1.00231 -0.00629786 -6.67158e-21)
(1.00237 -0.00651277 7.59591e-22)
(1.00244 -0.00672986 0)
(1.00251 -0.00694922 7.15597e-21)
(1.00257 -0.00717091 5.60272e-21)
(1.00263 -0.00739503 6.53636e-21)
(1.0027 -0.00762169 6.75672e-21)
(1.00276 -0.00785099 -8.56844e-22)
(1.00281 -0.00808308 -5.19157e-21)
(1.00287 -0.00831808 6.18856e-21)
(1.00293 -0.00855614 -7.2228e-21)
(1.00298 -0.00879741 0)
(1.00303 -0.00904206 1.51512e-20)
(1.00308 -0.00929026 0)
(1.00312 -0.00954218 -1.57849e-20)
(1.00317 -0.00979802 1.7122e-20)
(1.00321 -0.010058 7.26026e-21)
(1.00325 -0.0103222 1.67961e-20)
(1.00329 -0.010591 -7.43542e-21)
(1.00332 -0.0108644 -8.68543e-21)
(1.00335 -0.0111428 -1.11082e-20)
(1.00338 -0.0114263 1.14046e-21)
(1.00341 -0.0117152 1.16802e-21)
(1.00343 -0.0120096 3.28083e-24)
(1.00345 -0.0123098 -2.43478e-21)
(1.00347 -0.012616 -3.60477e-24)
(1.00349 -0.0129284 -7.71158e-21)
(1.0035 -0.0132473 -2.59791e-21)
(1.0035 -0.0135729 1.51177e-21)
(1.00351 -0.0139054 1.35921e-21)
(1.00351 -0.0142449 8.22192e-21)
(1.00351 -0.0145919 7.03654e-21)
(1.0035 -0.0149464 1.4527e-21)
(1.00349 -0.0153086 -1.48037e-21)
(1.00348 -0.015679 -1.51942e-21)
(1.00347 -0.0160575 3.10263e-21)
(1.00345 -0.0164445 -1.58392e-21)
(1.00342 -0.0168402 -8.05591e-21)
(1.00339 -0.0172448 1.65791e-21)
(1.00336 -0.0176586 0)
(1.00332 -0.0180818 7.02922e-21)
(1.00328 -0.0185146 0)
(1.00324 -0.0189573 -1.45819e-20)
(1.00319 -0.01941 7.54416e-21)
(1.00313 -0.0198732 -7.56145e-21)
(1.00307 -0.0203469 -7.91352e-21)
(1.00301 -0.0208315 7.92934e-21)
(1.00294 -0.0213273 8.30557e-21)
(1.00286 -0.0218345 -2.10945e-21)
(1.00278 -0.0223534 2.15068e-21)
(1.00269 -0.0228843 1.09496e-20)
(1.0026 -0.0234275 -1.36947e-20)
(1.0025 -0.0239833 -4.53084e-21)
(1.0024 -0.024552 -1.17794e-20)
(1.00229 -0.025134 -2.44821e-21)
(1.00217 -0.0257296 2.49662e-21)
(1.00205 -0.0263393 -2.58637e-22)
(1.00192 -0.0269633 2.64307e-21)
(1.00178 -0.0276021 -2.69565e-21)
(1.00164 -0.0282561 0)
(1.00149 -0.0289258 0)
(1.00133 -0.0296115 0)
(1.00116 -0.0303138 0)
(1.00099 -0.0310332 0)
(1.0008 -0.0317703 -3.17922e-21)
(1.00061 -0.0325255 1.60757e-20)
(1.00041 -0.0332994 3.35702e-21)
(1.0002 -0.0340927 -2.04237e-20)
(0.999976 -0.0349059 -1.08192e-20)
(0.999745 -0.0357399 1.47472e-20)
(0.999504 -0.0365951 0)
(0.999252 -0.0374725 0)
(0.998989 -0.0383728 1.55705e-20)
(0.998714 -0.0392967 -1.60198e-20)
(0.998427 -0.0402451 -8.24279e-21)
(0.998128 -0.041219 -1.72454e-20)
(0.997816 -0.0422192 -1.32974e-20)
(0.99749 -0.0432468 -4.55378e-21)
(0.997151 -0.0443028 -9.26459e-21)
(0.996797 -0.0453882 0)
(0.996428 -0.0465043 9.83562e-21)
(0.996044 -0.0476521 0)
(0.995643 -0.0488331 0)
(0.995225 -0.0500484 1.62949e-20)
(0.99479 -0.0512996 -2.28501e-20)
(0.994337 -0.052588 5.81359e-21)
(0.993864 -0.0539151 -1.22816e-20)
(0.993372 -0.0552826 0)
(0.992859 -0.0566922 6.46926e-21)
(0.992326 -0.0581454 -6.60865e-21)
(0.991772 -0.0596422 0)
(0.991196 -0.0611855 -2.83703e-20)
(0.990598 -0.0627781 0)
(0.989975 -0.064422 -7.02568e-21)
(0.989326 -0.0661193 2.37969e-20)
(0.988648 -0.0678727 0)
(0.987941 -0.0696854 1.71392e-20)
(0.987203 -0.0715603 -3.47671e-20)
(0.986433 -0.0735007 9.06487e-21)
(0.98563 -0.0755098 -9.26538e-21)
(0.984792 -0.0775911 -3.86397e-20)
(0.983917 -0.0797481 1.00869e-20)
(0.983005 -0.0819847 -1.03123e-20)
(0.982052 -0.0843051 1.6587e-20)
(0.981058 -0.0867136 5.54596e-21)
(0.98002 -0.089215 -2.37064e-20)
(0.978936 -0.0918142 -2.35025e-20)
(0.977803 -0.0945167 0)
(0.976619 -0.0973282 -6.53984e-21)
(0.975382 -0.100255 -2.77062e-20)
(0.974088 -0.103304 3.42903e-20)
(0.972735 -0.106481 0)
(0.971319 -0.109796 -2.9537e-20)
(0.969837 -0.113256 5.50597e-20)
(0.968285 -0.11687 2.32742e-20)
(0.96666 -0.120648 0)
(0.964957 -0.1246 0)
(0.963172 -0.128739 -2.76479e-20)
(0.9613 -0.133077 -9.54763e-21)
(0.959336 -0.137627 1.01205e-20)
(0.957275 -0.142405 -1.03612e-20)
(0.95511 -0.147427 0)
(0.952837 -0.152712 1.18802e-20)
(0.950446 -0.158278 1.30729e-20)
(0.947933 -0.164148 4.93257e-20)
(0.945288 -0.170346 -1.29722e-20)
(0.942502 -0.176899 1.32854e-20)
(0.939568 -0.183836 1.40923e-20)
(0.936475 -0.191192 -1.26364e-20)
(0.933212 -0.199002 1.33878e-20)
(0.929767 -0.207308 -1.36381e-20)
(0.926128 -0.216157 2.15971e-21)
(0.92228 -0.225602 0)
(0.918209 -0.235702 3.68019e-20)
(0.913897 -0.246523 0)
(0.909326 -0.258144 9.63753e-21)
(0.904476 -0.270651 -6.8717e-21)
(0.899324 -0.284145 0)
(0.893845 -0.298743 -8.46368e-20)
(0.888012 -0.314579 -1.08831e-20)
(0.881794 -0.33181 1.1137e-20)
(0.875155 -0.350618 -4.32759e-20)
(0.868056 -0.371221 0)
(0.860453 -0.393871 9.25409e-20)
(0.852295 -0.418874 1.12722e-20)
(0.843518 -0.44659 4.1544e-20)
(0.834033 -0.477429 3.54829e-20)
(0.823642 -0.51176 0)
(0.811745 -0.549519 8.00671e-21)
(0.796439 -0.589068 -2.84075e-20)
(0.772698 -0.624368 3.1911e-21)
(0.728497 -0.641044 1.51217e-20)
(0.645389 -0.612342 -9.96696e-21)
(0.488967 -0.496469 2.08363e-20)
(0.222059 -0.23366 -2.12946e-20)
(1.00001 -1.3803e-05 5.00343e-21)
(1.00001 -4.74446e-05 -6.21782e-23)
(1.00002 -8.83204e-05 -4.10041e-26)
(1.00002 -0.000135984 4.29847e-23)
(1.00003 -0.000190455 1.12175e-20)
(1.00005 -0.000250801 5.81577e-21)
(1.00006 -0.000316851 -9.08545e-23)
(1.00008 -0.000388665 0)
(1.00011 -0.000466372 -5.83117e-21)
(1.00013 -0.000550082 -6.35858e-21)
(1.00016 -0.000639849 6.24422e-21)
(1.00019 -0.000735662 0)
(1.00022 -0.00083746 -2.03115e-22)
(1.00025 -0.00094515 2.06731e-22)
(1.00029 -0.00105862 -6.76666e-21)
(1.00032 -0.00117773 -6.84472e-21)
(1.00037 -0.00130235 0)
(1.00041 -0.0014323 0)
(1.00045 -0.00156742 0)
(1.0005 -0.00170751 0)
(1.00055 -0.0018524 -8.03954e-21)
(1.0006 -0.00200188 8.19113e-21)
(1.00065 -0.00215575 -7.85753e-21)
(1.0007 -0.00231382 0)
(1.00076 -0.00247588 -5.07822e-22)
(1.00082 -0.00264174 5.16946e-22)
(1.00087 -0.00281121 -8.99974e-21)
(1.00093 -0.0029841 9.17104e-21)
(1.00099 -0.00316024 9.26369e-21)
(1.00106 -0.00333944 3.92669e-21)
(1.00112 -0.00352155 -5.68686e-22)
(1.00118 -0.00370641 5.78954e-22)
(1.00125 -0.00389387 4.74813e-21)
(1.00131 -0.00408381 0)
(1.00138 -0.00427609 6.13754e-22)
(1.00144 -0.0044706 -6.78243e-22)
(1.00151 -0.00466725 -5.12764e-21)
(1.00157 -0.00486596 -5.22779e-21)
(1.00164 -0.00506664 4.66727e-21)
(1.0017 -0.00526924 6.74945e-22)
(1.00177 -0.00547373 0)
(1.00183 -0.00568007 7.02692e-22)
(1.00189 -0.00588826 5.04772e-21)
(1.00196 -0.0060983 7.30752e-22)
(1.00202 -0.0063102 -7.44104e-22)
(1.00208 -0.00652402 7.60115e-22)
(1.00214 -0.00673978 4.68797e-21)
(1.0022 -0.00695755 7.89517e-22)
(1.00225 -0.00717742 -6.40862e-21)
(1.00231 -0.00739945 -6.62275e-21)
(1.00236 -0.00762374 0)
(1.00242 -0.00785041 9.48135e-22)
(1.00247 -0.00807958 -7.03468e-21)
(1.00252 -0.00831137 1.78135e-24)
(1.00256 -0.00854592 -1.8192e-21)
(1.00261 -0.00878338 9.27363e-22)
(1.00265 -0.00902392 7.63627e-21)
(1.00269 -0.0092677 -7.68394e-21)
(1.00273 -0.00951491 7.95889e-21)
(1.00276 -0.00976571 8.00684e-21)
(1.0028 -0.0100203 -1.64722e-20)
(1.00283 -0.0102789 -8.34604e-21)
(1.00286 -0.0105417 -7.4475e-21)
(1.00288 -0.0108089 2.85612e-24)
(1.00291 -0.0110808 -1.11797e-21)
(1.00293 -0.0113575 8.07901e-21)
(1.00294 -0.0116392 2.33628e-21)
(1.00296 -0.0119263 8.43738e-21)
(1.00297 -0.0122188 0)
(1.00297 -0.0125171 1.13037e-20)
(1.00298 -0.0128214 -1.15492e-20)
(1.00298 -0.0131319 1.68817e-20)
(1.00298 -0.0134487 4.04175e-21)
(1.00297 -0.0137723 -1.07868e-20)
(1.00296 -0.0141027 7.0064e-21)
(1.00295 -0.0144402 4.98758e-24)
(1.00293 -0.0147851 5.22274e-24)
(1.00291 -0.0151375 4.52113e-21)
(1.00289 -0.0154977 1.52357e-21)
(1.00286 -0.015866 6.29081e-21)
(1.00283 -0.0162425 -1.58833e-21)
(1.00279 -0.0166275 0)
(1.00275 -0.0170212 1.66977e-21)
(1.00271 -0.0174238 7.20309e-24)
(1.00266 -0.0178357 -1.74179e-21)
(1.0026 -0.0182569 -7.07671e-21)
(1.00254 -0.0186878 0)
(1.00248 -0.0191286 5.53932e-21)
(1.00241 -0.0195795 2.07979e-21)
(1.00234 -0.0200408 -7.94975e-21)
(1.00226 -0.0205128 7.96613e-21)
(1.00218 -0.0209956 0)
(1.00209 -0.0214896 -8.36038e-21)
(1.00199 -0.0219951 2.17114e-21)
(1.00189 -0.0225123 8.99839e-21)
(1.00178 -0.0230415 6.94458e-21)
(1.00167 -0.023583 9.22426e-21)
(1.00155 -0.0241372 0)
(1.00143 -0.0247043 -9.93902e-21)
(1.00129 -0.0252848 2.52384e-21)
(1.00116 -0.0258789 1.57288e-23)
(1.00101 -0.026487 -2.91113e-21)
(1.00086 -0.0271095 -1.10207e-20)
(1.0007 -0.0277468 -1.13138e-20)
(1.00053 -0.0283994 0)
(1.00035 -0.0290676 -1.48807e-20)
(1.00017 -0.0297519 3.00995e-21)
(0.999974 -0.0304528 0)
(0.999772 -0.0311709 0)
(0.999561 -0.0319065 1.32929e-20)
(0.99934 -0.0326603 0)
(0.99911 -0.0334328 -1.40476e-20)
(0.99887 -0.0342247 -1.08746e-20)
(0.998619 -0.0350366 1.07804e-20)
(0.998358 -0.0358692 -1.48322e-20)
(0.998086 -0.036723 0)
(0.997802 -0.037599 -8.09187e-21)
(0.997506 -0.0384978 -8.32942e-21)
(0.997197 -0.0394203 -8.5758e-21)
(0.996876 -0.0403673 -4.46876e-21)
(0.996542 -0.0413397 -1.37421e-22)
(0.996194 -0.0423384 1.36578e-20)
(0.995831 -0.0433644 4.76935e-21)
(0.995454 -0.0444187 4.68692e-23)
(0.995061 -0.0455025 -1.00852e-20)
(0.994652 -0.0466168 1.03981e-20)
(0.994226 -0.0477629 -1.07233e-20)
(0.993783 -0.048942 -2.01852e-22)
(0.993322 -0.0501554 -5.6765e-21)
(0.992842 -0.0514046 2.35761e-20)
(0.992343 -0.0526909 -6.11278e-21)
(0.991823 -0.0540159 1.85789e-20)
(0.991283 -0.0553813 1.32177e-20)
(0.99072 -0.0567888 0)
(0.990135 -0.0582404 0)
(0.989526 -0.0597384 -7.39767e-21)
(0.988891 -0.0612851 1.46131e-20)
(0.98823 -0.0628823 -2.32198e-20)
(0.987541 -0.0645326 -2.34993e-20)
(0.986823 -0.0662382 -7.93104e-21)
(0.986074 -0.0680017 8.53538e-21)
(0.985295 -0.0698255 -2.59411e-20)
(0.984482 -0.0717125 1.783e-20)
(0.983636 -0.0736655 1.92534e-20)
(0.982754 -0.0756876 -1.99583e-20)
(0.981834 -0.0777822 1.98345e-20)
(0.980876 -0.0799528 2.14661e-20)
(0.979876 -0.0822033 5.48539e-21)
(0.978833 -0.084538 -5.08501e-20)
(0.977745 -0.0869611 0)
(0.97661 -0.0894773 2.38335e-20)
(0.975424 -0.0920918 6.37449e-21)
(0.974186 -0.0948099 2.03884e-20)
(0.972893 -0.0976373 2.79721e-20)
(0.971541 -0.10058 4.96884e-20)
(0.970129 -0.103646 7.32344e-21)
(0.968652 -0.10684 7.74514e-21)
(0.967107 -0.110172 -7.92542e-21)
(0.96549 -0.11365 -2.40996e-20)
(0.963798 -0.117282 8.32194e-21)
(0.962026 -0.121078 0)
(0.96017 -0.125049 0)
(0.958224 -0.129207 1.90999e-20)
(0.956184 -0.133564 -2.09561e-20)
(0.954044 -0.138133 0)
(0.951797 -0.142931 1.11983e-20)
(0.949437 -0.147972 -1.14673e-20)
(0.946958 -0.153276 -2.35082e-20)
(0.944352 -0.158862 -2.45175e-20)
(0.94161 -0.164751 -2.55725e-20)
(0.938723 -0.170969 0)
(0.935683 -0.177541 0)
(0.932477 -0.184497 0)
(0.929096 -0.191871 -3.02678e-20)
(0.925527 -0.199699 1.51534e-20)
(0.921755 -0.208022 -1.6091e-20)
(0.917767 -0.216886 2.00677e-20)
(0.913545 -0.226344 -4.70605e-20)
(0.909072 -0.236455 -9.60421e-20)
(0.904327 -0.247286 9.91042e-21)
(0.899289 -0.258912 0)
(0.893934 -0.27142 -4.16236e-20)
(0.888232 -0.284911 4.64149e-20)
(0.882155 -0.299498 5.61368e-20)
(0.875667 -0.315315 -4.96274e-20)
(0.86873 -0.332516 -1.22483e-20)
(0.861299 -0.351282 0)
(0.853323 -0.371824 -5.37718e-20)
(0.844744 -0.394393 -9.11725e-20)
(0.835493 -0.419285 -1.31615e-20)
(0.825489 -0.446851 -1.26655e-20)
(0.814615 -0.477485 -3.43497e-20)
(0.802642 -0.511525 0)
(0.788933 -0.548855 -4.06251e-20)
(0.771601 -0.587758 0)
(0.745807 -0.622194 -3.65393e-20)
(0.700365 -0.63786 -1.7247e-20)
(0.617708 -0.608412 -1.34782e-20)
(0.466024 -0.492817 -5.91313e-22)
(0.211137 -0.232374 -8.91474e-23)
(1.00002 -1.9697e-05 -5.0259e-21)
(1.00002 -6.51754e-05 0)
(1.00002 -0.00011729 0)
(1.00002 -0.000176194 -5.55228e-21)
(1.00003 -0.000241542 -1.12843e-20)
(1.00004 -0.000313082 -5.73144e-21)
(1.00006 -0.000390683 -9.15296e-23)
(1.00008 -0.000474313 6.07849e-21)
(1.00011 -0.000563985 0)
(1.00013 -0.000659695 6.3657e-21)
(1.00016 -0.000761389 6.13474e-21)
(1.00019 -0.000868966 0)
(1.00022 -0.000982295 0)
(1.00026 -0.00110123 2.08611e-22)
(1.0003 -0.00122562 6.56075e-21)
(1.00034 -0.0013553 0)
(1.00038 -0.00149013 -2.20663e-22)
(1.00043 -0.00162993 2.24605e-22)
(1.00047 -0.00177454 -7.35968e-21)
(1.00052 -0.00192378 -4.66897e-22)
(1.00057 -0.00207746 8.05125e-21)
(1.00062 -0.00223539 -1.55082e-20)
(1.00068 -0.00239738 -7.21214e-23)
(1.00073 -0.00256324 0)
(1.00079 -0.00273278 -5.13094e-22)
(1.00085 -0.0029058 1.04523e-21)
(1.0009 -0.00308212 1.16988e-20)
(1.00096 -0.00326155 -8.1012e-21)
(1.00102 -0.00344393 -4.44927e-21)
(1.00109 -0.00362907 -4.48912e-21)
(1.00115 -0.00381681 4.62325e-21)
(1.00121 -0.00400702 4.71306e-21)
(1.00127 -0.00419953 -4.75362e-21)
(1.00133 -0.00439424 -4.89856e-21)
(1.0014 -0.00459101 0)
(1.00146 -0.00478975 -6.89975e-22)
(1.00152 -0.00499037 5.7787e-21)
(1.00158 -0.0051928 1.05289e-20)
(1.00164 -0.00539697 6.25565e-23)
(1.00171 -0.00560285 0)
(1.00177 -0.0058104 -6.98261e-22)
(1.00183 -0.00601963 -1.1411e-24)
(1.00189 -0.00623053 -5.04554e-21)
(1.00194 -0.00644314 7.40843e-22)
(1.002 -0.00665748 1.30719e-24)
(1.00206 -0.00687362 -7.74217e-21)
(1.00211 -0.00709162 8.66574e-22)
(1.00216 -0.00731156 5.65341e-21)
(1.00221 -0.00753353 8.17117e-22)
(1.00226 -0.00775764 6.632e-21)
(1.00231 -0.00798401 -6.86006e-21)
(1.00235 -0.00821275 -7.73665e-22)
(1.0024 -0.00844402 8.82048e-21)
(1.00244 -0.00867794 1.98011e-24)
(1.00248 -0.00891469 2.07413e-24)
(1.00251 -0.00915442 -9.42217e-22)
(1.00255 -0.00939731 -7.64781e-21)
(1.00258 -0.00964355 0)
(1.00261 -0.00989332 -7.9712e-21)
(1.00263 -0.0101468 0)
(1.00266 -0.0104043 9.35934e-21)
(1.00268 -0.0106658 -9.69028e-21)
(1.00269 -0.0109318 0)
(1.00271 -0.0112023 -1.01157e-20)
(1.00272 -0.0114775 2.27959e-21)
(1.00273 -0.0117578 -1.04023e-20)
(1.00273 -0.0120434 1.19173e-21)
(1.00274 -0.0123344 -1.08597e-20)
(1.00273 -0.012631 -1.24472e-21)
(1.00273 -0.0129336 -3.67957e-21)
(1.00272 -0.0132424 8.9954e-21)
(1.00271 -0.0135575 -3.93714e-21)
(1.00269 -0.0138792 -1.22177e-20)
(1.00267 -0.0142078 -4.21739e-21)
(1.00265 -0.0145434 -4.20229e-21)
(1.00262 -0.0148863 -1.44876e-21)
(1.00259 -0.0152367 5.9962e-21)
(1.00255 -0.0155948 -6.01672e-21)
(1.00251 -0.0159609 -7.8345e-21)
(1.00247 -0.0163352 -4.71042e-21)
(1.00242 -0.0167179 1.63062e-21)
(1.00236 -0.0171092 -3.33081e-21)
(1.0023 -0.0175094 -7.50404e-24)
(1.00224 -0.0179187 -7.85314e-24)
(1.00217 -0.0183373 1.78275e-21)
(1.0021 -0.0187654 0)
(1.00202 -0.0192034 0)
(1.00194 -0.0196513 -5.83899e-21)
(1.00185 -0.0201095 -9.73891e-21)
(1.00176 -0.0205782 -1.82905e-22)
(1.00166 -0.0210576 0)
(1.00155 -0.0215481 -2.1213e-21)
(1.00144 -0.0220498 -8.78883e-21)
(1.00132 -0.0225631 2.21689e-21)
(1.0012 -0.0230882 -6.72185e-21)
(1.00107 -0.0236254 -2.33749e-20)
(1.00093 -0.024175 -7.31838e-21)
(1.00079 -0.0247373 2.46647e-21)
(1.00064 -0.0253127 -2.77172e-21)
(1.00048 -0.0259014 -7.89198e-21)
(1.00031 -0.0265039 -2.64819e-21)
(1.00014 -0.0271205 2.18174e-20)
(0.999959 -0.0277515 -2.99322e-22)
(0.99977 -0.0283974 1.42281e-20)
(0.999573 -0.0290586 -1.19507e-20)
(0.999367 -0.0297355 8.94046e-21)
(0.999152 -0.0304286 3.12655e-21)
(0.998928 -0.0311383 -3.18926e-21)
(0.998695 -0.0318651 -3.30218e-21)
(0.998451 -0.0326096 -6.56744e-21)
(0.998198 -0.0333724 -3.46317e-21)
(0.997934 -0.0341539 1.04993e-20)
(0.997659 -0.0349548 1.44581e-20)
(0.997373 -0.0357757 7.56569e-21)
(0.997075 -0.0366172 -3.87591e-21)
(0.996766 -0.0374802 0)
(0.996444 -0.0383653 3.97569e-21)
(0.996109 -0.0392732 1.25824e-20)
(0.99576 -0.0402048 1.29953e-20)
(0.995398 -0.0411609 4.37764e-21)
(0.995022 -0.0421424 -1.40953e-20)
(0.994631 -0.0431502 9.5626e-21)
(0.994224 -0.0441853 -9.9759e-21)
(0.993801 -0.0452488 -1.53924e-20)
(0.993362 -0.0463417 1.06616e-20)
(0.992905 -0.047465 0)
(0.99243 -0.0486202 5.60553e-21)
(0.991937 -0.0498083 1.72964e-20)
(0.991425 -0.0510306 -5.97254e-21)
(0.990892 -0.0522887 6.54734e-21)
(0.990338 -0.0535839 0)
(0.989763 -0.0549178 6.58127e-21)
(0.989165 -0.0562921 -1.99918e-20)
(0.988543 -0.0577086 0)
(0.987896 -0.0591691 -2.20005e-20)
(0.987224 -0.0606755 2.20823e-20)
(0.986525 -0.0622297 0)
(0.985798 -0.0638337 3.1998e-20)
(0.985041 -0.0654899 0)
(0.984254 -0.0672004 2.61209e-20)
(0.983435 -0.0689678 -1.8001e-20)
(0.982582 -0.0707947 -1.86501e-20)
(0.981695 -0.072684 -1.90603e-20)
(0.980771 -0.0746388 -1.45083e-20)
(0.979808 -0.0766623 3.02964e-20)
(0.978805 -0.078758 2.17866e-20)
(0.97776 -0.0809295 -2.70425e-20)
(0.976671 -0.0831807 5.76353e-21)
(0.975536 -0.0855157 -6.94612e-21)
(0.974352 -0.0879389 -1.90117e-20)
(0.973117 -0.0904551 -6.35729e-21)
(0.971828 -0.0930692 0)
(0.970483 -0.0957866 1.27505e-21)
(0.969078 -0.0986131 -2.81275e-20)
(0.967611 -0.101555 -2.92514e-20)
(0.966079 -0.104619 0)
(0.964476 -0.107811 1.66096e-20)
(0.962801 -0.111141 1.72978e-20)
(0.961049 -0.114616 8.87071e-21)
(0.959215 -0.118245 -9.0798e-21)
(0.957295 -0.122037 -9.94197e-21)
(0.955283 -0.126005 -9.86208e-21)
(0.953176 -0.130158 2.12901e-20)
(0.950966 -0.13451 2.10976e-20)
(0.948647 -0.139074 -1.13997e-20)
(0.946213 -0.143866 -2.23092e-22)
(0.943658 -0.148901 3.74524e-20)
(0.940972 -0.154197 0)
(0.938147 -0.159775 -1.35416e-20)
(0.935175 -0.165656 1.38719e-20)
(0.932045 -0.171864 -1.47735e-20)
(0.928747 -0.178425 1.51357e-20)
(0.925269 -0.185369 0)
(0.921597 -0.192729 1.68408e-20)
(0.917719 -0.200541 -1.72559e-20)
(0.913618 -0.208847 -1.83691e-20)
(0.909277 -0.217692 -6.68052e-20)
(0.904678 -0.227128 4.82578e-20)
(0.899799 -0.237213 5.05054e-20)
(0.894618 -0.248014 -6.61684e-20)
(0.889109 -0.259605 1.11447e-20)
(0.883243 -0.272074 -1.17801e-20)
(0.876988 -0.285517 -3.48359e-20)
(0.870306 -0.300048 0)
(0.863158 -0.315797 6.33701e-20)
(0.855495 -0.332918 5.62448e-20)
(0.847265 -0.351586 -1.38422e-20)
(0.838405 -0.372009 4.0218e-20)
(0.828843 -0.394431 6.98336e-20)
(0.818495 -0.419142 -4.72005e-20)
(0.807258 -0.446481 -1.48567e-20)
(0.794993 -0.476823 6.18854e-20)
(0.781434 -0.510471 1.36694e-20)
(0.765904 -0.547244 -1.39464e-20)
(0.746516 -0.585325 -5.65973e-21)
(0.718588 -0.618655 9.05082e-20)
(0.671723 -0.633098 -3.91544e-20)
(0.589266 -0.602787 1.62528e-20)
(0.442228 -0.487649 0)
(0.199532 -0.230257 1.09682e-20)
(1.00002 -2.55465e-05 1.00881e-20)
(1.00002 -8.24342e-05 -5.33947e-21)
(1.00002 -0.000145632 5.4863e-21)
(1.00002 -0.000215184 -7.9647e-23)
(1.00003 -0.000290847 -3.8202e-23)
(1.00004 -0.000372346 0)
(1.00006 -0.000459501 0)
(1.00008 -0.000552237 -5.99045e-21)
(1.0001 -0.000650535 -6.14979e-21)
(1.00013 -0.000754384 -6.26744e-21)
(1.00015 -0.000863746 -6.33736e-21)
(1.00018 -0.000978557 -6.50964e-21)
(1.00021 -0.00109873 -6.42768e-21)
(1.00025 -0.00122417 6.76148e-21)
(1.00028 -0.00135478 -2.1424e-22)
(1.00032 -0.00149046 0)
(1.00036 -0.00163109 -6.93458e-21)
(1.0004 -0.00177654 -7.5214e-21)
(1.00044 -0.00192667 7.36677e-21)
(1.00049 -0.0020813 0)
(1.00053 -0.00224027 0)
(1.00058 -0.0024034 7.79663e-21)
(1.00063 -0.00257047 7.94579e-21)
(1.00068 -0.0027413 -8.17888e-21)
(1.00073 -0.00291568 0)
(1.00078 -0.00309341 0)
(1.00083 -0.00327428 -4.82588e-21)
(1.00089 -0.00345811 5.48622e-22)
(1.00094 -0.0036447 4.45406e-21)
(1.001 -0.00383387 0)
(1.00105 -0.00402546 -5.21036e-21)
(1.00111 -0.00421929 -3.53237e-21)
(1.00116 -0.00441524 -5.46878e-21)
(1.00122 -0.00461317 9.8645e-21)
(1.00128 -0.00481296 0)
(1.00133 -0.00501451 5.7396e-21)
(1.00139 -0.00521774 -5.25944e-21)
(1.00144 -0.00542258 -1.26895e-21)
(1.0015 -0.00562897 -4.72663e-21)
(1.00155 -0.00583687 0)
(1.00161 -0.00604628 0)
(1.00166 -0.00625719 0)
(1.00171 -0.00646961 -5.18837e-21)
(1.00176 -0.00668358 -7.4987e-22)
(1.00181 -0.00689914 6.16731e-21)
(1.00186 -0.00711636 1.32847e-20)
(1.0019 -0.00733532 -1.35534e-20)
(1.00194 -0.0075561 -1.30175e-20)
(1.00199 -0.00777879 6.68791e-21)
(1.00203 -0.00800353 8.48057e-22)
(1.00206 -0.00823041 6.00583e-21)
(1.0021 -0.00845959 -7.82288e-22)
(1.00213 -0.0086912 1.80174e-21)
(1.00216 -0.0089254 -9.18572e-22)
(1.00219 -0.00916235 -9.40062e-22)
(1.00222 -0.00940222 -2.38773e-24)
(1.00224 -0.0096452 1.9578e-21)
(1.00226 -0.00989147 -9.98338e-22)
(1.00228 -0.0101412 0)
(1.00229 -0.0103947 0)
(1.0023 -0.010652 9.65807e-21)
(1.00231 -0.0109135 1.52373e-20)
(1.00232 -0.0111793 8.96525e-21)
(1.00232 -0.0114497 9.00939e-21)
(1.00232 -0.0117248 2.32122e-21)
(1.00231 -0.012005 8.38808e-21)
(1.0023 -0.0122904 -1.21419e-21)
(1.00229 -0.0125813 1.237e-21)
(1.00227 -0.012878 1.26879e-21)
(1.00225 -0.0131805 -5.12998e-21)
(1.00223 -0.0134893 4.02424e-21)
(1.0022 -0.0138044 -4.11084e-21)
(1.00217 -0.0141263 4.10619e-21)
(1.00214 -0.014455 5.6127e-21)
(1.0021 -0.0147908 0)
(1.00205 -0.015134 1.48497e-21)
(1.002 -0.0154847 -1.39373e-21)
(1.00195 -0.0158432 0)
(1.00189 -0.0162098 -1.71963e-21)
(1.00183 -0.0165847 1.62169e-21)
(1.00176 -0.016968 0)
(1.00169 -0.01736 -1.70711e-21)
(1.00162 -0.017761 7.04394e-21)
(1.00153 -0.0181712 1.78159e-21)
(1.00145 -0.0185907 0)
(1.00136 -0.0190199 0)
(1.00126 -0.019459 0)
(1.00115 -0.0199082 -2.14953e-21)
(1.00105 -0.0203677 4.0302e-21)
(1.00093 -0.0208378 4.03751e-21)
(1.00081 -0.0213187 1.06811e-20)
(1.00068 -0.0218108 8.78709e-21)
(1.00055 -0.0223142 -2.14245e-22)
(1.00041 -0.0228293 0)
(1.00026 -0.0233563 7.13301e-21)
(1.00011 -0.0238955 1.18801e-20)
(0.999949 -0.0244472 9.73146e-21)
(0.999781 -0.0250117 1.02428e-20)
(0.999605 -0.0255894 1.02451e-20)
(0.999422 -0.0261805 1.05146e-20)
(0.999231 -0.0267855 -2.74265e-21)
(0.999032 -0.0274046 -8.28341e-21)
(0.998824 -0.0280384 2.30686e-20)
(0.998608 -0.028687 2.97134e-21)
(0.998382 -0.0293511 5.91902e-21)
(0.998147 -0.030031 -9.56904e-21)
(0.997903 -0.0307271 0)
(0.997649 -0.03144 0)
(0.997384 -0.0321701 -1.719e-20)
(0.99711 -0.032918 3.47676e-21)
(0.996824 -0.0336841 0)