/*--------------------------------*- C++ -*----------------------------------*\
| =========                 |                                                 |
| \\      /  F ield         | OpenFOAM: The Open Source CFD Toolbox           |
|  \\    /   O peration     | Version:  2.3.1                                 |
|   \\  /    A nd           | Web:      www.OpenFOAM.org                      |
|    \\/     M anipulation  |                                                 |
\*---------------------------------------------------------------------------*/
FoamFile
{
    version     2.0;
    format      ascii;
    class       volVectorField;
    location    "1000";
    object      U_0;
}
// * * * * * * * * * * * * * * * * * * * * * * * * * * * * * * * * * * * * * //

dimensions      [0 1 -1 0 0 0 0];

internalField   nonuniform List<vector> 
66000
(
(1 -2.37488e-06 -4.93163e-21)
(1 -1.08053e-05 -2.05439e-23)
(1.00001 -2.39224e-05 4.18261e-23)
(1.00002 -4.22066e-05 -5.48834e-21)
(1.00003 -6.58716e-05 0)
(1.00004 -9.53062e-05 0)
(1.00005 -0.000132547 5.72574e-21)
(1.00007 -0.000177117 -6.00544e-21)
(1.00009 -0.000228658 5.92415e-21)
(1.00012 -0.000286917 1.88592e-22)
(1.00014 -0.000351713 -6.15766e-21)
(1.00017 -0.000422915 -2.208e-22)
(1.00021 -0.000500423 1.98844e-22)
(1.00024 -0.000584151 -6.46717e-21)
(1.00028 -0.000674016 -6.82047e-21)
(1.00032 -0.000769932 -6.91062e-21)
(1.00036 -0.000871802 7.67539e-21)
(1.0004 -0.000979516 6.50915e-21)
(1.00045 -0.00109295 7.06928e-21)
(1.0005 -0.00121196 -7.23971e-21)
(1.00055 -0.0013364 -6.86858e-21)
(1.0006 -0.0014661 7.04072e-21)
(1.00066 -0.00160088 4.76053e-22)
(1.00071 -0.00174054 7.25092e-21)
(1.00077 -0.00188492 -7.877e-21)
(1.00083 -0.00203379 -1.55969e-20)
(1.0009 -0.00218698 -5.11768e-22)
(1.00096 -0.00234429 8.84095e-21)
(1.00102 -0.00250552 -5.30876e-22)
(1.00109 -0.00267049 1.73269e-20)
(1.00116 -0.00283901 8.85989e-21)
(1.00123 -0.00301092 0)
(1.0013 -0.00318605 -8.54852e-21)
(1.00137 -0.00336424 -5.82264e-22)
(1.00144 -0.00354535 0)
(1.00151 -0.00372924 4.86379e-21)
(1.00158 -0.00391579 -5.57259e-21)
(1.00166 -0.00410489 -4.42321e-21)
(1.00173 -0.00429644 0)
(1.0018 -0.00449036 5.8493e-21)
(1.00188 -0.00468658 3.96741e-21)
(1.00195 -0.00488504 5.39664e-21)
(1.00203 -0.0050857 1.38026e-21)
(1.0021 -0.00528855 -1.19724e-20)
(1.00217 -0.00549355 -5.71487e-21)
(1.00225 -0.00570072 1.17109e-20)
(1.00232 -0.00591008 0)
(1.00239 -0.00612165 0)
(1.00246 -0.00633547 7.75254e-22)
(1.00253 -0.0065516 -1.34455e-20)
(1.0026 -0.00677011 -7.29476e-21)
(1.00267 -0.00699106 8.20898e-22)
(1.00273 -0.00721456 0)
(1.0028 -0.0074407 7.83528e-23)
(1.00286 -0.00766959 -7.89665e-21)
(1.00293 -0.00790136 8.05467e-21)
(1.00299 -0.00813613 0)
(1.00305 -0.00837406 -1.48316e-20)
(1.00311 -0.0086153 9.45435e-22)
(1.00316 -0.00886001 6.80674e-21)
(1.00322 -0.00910835 -1.67455e-20)
(1.00327 -0.00936052 1.00287e-21)
(1.00332 -0.00961669 -8.2626e-21)
(1.00337 -0.00987705 9.48244e-21)
(1.00341 -0.0101418 7.54564e-21)
(1.00346 -0.0104112 8.79384e-21)
(1.0035 -0.0106853 0)
(1.00354 -0.0109645 -1.13823e-21)
(1.00357 -0.0112489 1.15951e-21)
(1.00361 -0.0115387 9.43371e-21)
(1.00364 -0.0118342 -9.63536e-21)
(1.00367 -0.0121356 -1.23905e-21)
(1.00369 -0.012443 2.52829e-21)
(1.00371 -0.0127568 1.04307e-20)
(1.00373 -0.0130772 -2.63981e-21)
(1.00375 -0.0134043 -9.54477e-21)
(1.00376 -0.0137384 -5.56673e-21)
(1.00377 -0.0140797 0)
(1.00378 -0.0144284 0)
(1.00378 -0.0147848 0)
(1.00379 -0.0151491 -5.98577e-21)
(1.00378 -0.0155216 -1.54305e-21)
(1.00378 -0.0159023 3.25699e-21)
(1.00377 -0.0162917 -1.60847e-21)
(1.00375 -0.0166899 0)
(1.00373 -0.0170971 0)
(1.00371 -0.0175136 0)
(1.00369 -0.0179397 5.37199e-21)
(1.00366 -0.0183755 -7.5325e-24)
(1.00362 -0.0188213 1.66792e-20)
(1.00358 -0.0192774 0)
(1.00354 -0.0197441 -1.4781e-22)
(1.00349 -0.0202215 1.99116e-21)
(1.00344 -0.02071 -2.02997e-21)
(1.00338 -0.0212099 -2.08925e-21)
(1.00332 -0.0217214 -6.51443e-21)
(1.00325 -0.0222448 8.68052e-21)
(1.00318 -0.0227805 9.0803e-21)
(1.0031 -0.0233287 9.30848e-21)
(1.00302 -0.0238899 0)
(1.00293 -0.0244643 -9.57846e-21)
(1.00283 -0.0250524 -1.98584e-20)
(1.00273 -0.0256544 -2.54759e-21)
(1.00262 -0.0262708 2.59829e-21)
(1.00251 -0.026902 7.91458e-21)
(1.00239 -0.0275485 1.36063e-20)
(1.00226 -0.0282106 0)
(1.00212 -0.0288889 -2.89917e-21)
(1.00198 -0.0295838 2.95754e-21)
(1.00183 -0.0302959 -3.05684e-21)
(1.00167 -0.0310257 -2.19749e-20)
(1.0015 -0.0317738 0)
(1.00133 -0.0325407 3.36092e-22)
(1.00114 -0.0333272 0)
(1.00095 -0.0341338 -1.38065e-20)
(1.00075 -0.0349612 0)
(1.00053 -0.0358103 0)
(1.00031 -0.0366816 -1.54174e-20)
(1.00008 -0.0375761 1.58635e-20)
(0.999832 -0.0384946 8.16303e-21)
(0.999576 -0.0394379 2.47398e-20)
(0.999308 -0.040407 2.44739e-22)
(0.999028 -0.0414029 0)
(0.998735 -0.0424266 4.79658e-21)
(0.998429 -0.0434791 4.14528e-23)
(0.99811 -0.0445616 -2.39681e-20)
(0.997776 -0.0456753 9.74387e-21)
(0.997427 -0.0468215 -1.0043e-20)
(0.997063 -0.0480014 -1.06857e-20)
(0.996682 -0.0492164 0)
(0.996285 -0.0504681 1.10136e-20)
(0.995871 -0.0517578 0)
(0.995438 -0.0530873 0)
(0.994986 -0.0544581 0)
(0.994515 -0.0558722 0)
(0.994021 -0.0573327 0)
(0.993505 -0.05884 2.71463e-20)
(0.992969 -0.0603977 1.37786e-20)
(0.992412 -0.0620101 1.47569e-20)
(0.991832 -0.063678 -7.5134e-21)
(0.991227 -0.0654032 7.67683e-21)
(0.990597 -0.0671879 2.3769e-20)
(0.989938 -0.0690348 8.68399e-21)
(0.989251 -0.0709471 -1.68379e-20)
(0.988533 -0.072928 1.74276e-20)
(0.987784 -0.0749808 1.87618e-20)
(0.987001 -0.0771093 -9.12326e-21)
(0.986182 -0.0793174 -9.77556e-21)
(0.985327 -0.0816093 2.00584e-20)
(0.984434 -0.0839892 2.61164e-20)
(0.9835 -0.086462 -5.44516e-21)
(0.982524 -0.0890328 2.33157e-20)
(0.981503 -0.0917069 0)
(0.980436 -0.0944901 0)
(0.979319 -0.0973887 6.41065e-21)
(0.97815 -0.100409 -2.70094e-20)
(0.976927 -0.103559 -1.37297e-20)
(0.975646 -0.106846 3.63619e-20)
(0.974305 -0.110279 -8.8396e-21)
(0.972899 -0.113866 -2.40195e-20)
(0.971426 -0.117617 8.08247e-21)
(0.969882 -0.121544 -8.2712e-21)
(0.968263 -0.125657 1.78379e-20)
(0.966565 -0.129969 4.44594e-20)
(0.964782 -0.134495 1.85496e-20)
(0.962911 -0.139248 -1.95662e-20)
(0.960946 -0.144246 1.97445e-20)
(0.958881 -0.149507 4.82142e-22)
(0.95671 -0.15505 1.18067e-20)
(0.954427 -0.160899 -3.45643e-20)
(0.952026 -0.167076 -5.79787e-22)
(0.949498 -0.173609 1.23625e-20)
(0.946836 -0.180527 0)
(0.944031 -0.187864 1.42926e-20)
(0.941074 -0.195658 -2.92692e-20)
(0.937955 -0.20395 4.47288e-20)
(0.934663 -0.212786 4.67312e-20)
(0.931186 -0.222219 -1.56571e-20)
(0.927513 -0.23231 3.1716e-20)
(0.923628 -0.243126 8.51872e-21)
(0.919519 -0.254744 -8.72168e-21)
(0.915167 -0.267254 2.74083e-21)
(0.910557 -0.280755 0)
(0.905668 -0.295367 -6.40131e-21)
(0.90048 -0.311226 -2.78308e-20)
(0.89497 -0.328489 -9.94582e-21)
(0.889113 -0.347343 4.27731e-20)
(0.882881 -0.368008 1.02645e-20)
(0.876245 -0.390744 -4.30526e-20)
(0.869169 -0.41586 0)
(0.861614 -0.44373 -5.76625e-21)
(0.85352 -0.474788 0)
(0.844731 -0.50946 -3.65275e-20)
(0.834724 -0.547804 3.30596e-20)
(0.821668 -0.588411 3.45717e-20)
(0.800537 -0.625415 -3.92313e-21)
(0.758341 -0.644375 1.01372e-21)
(0.675486 -0.617696 1.05755e-20)
(0.514329 -0.501809 -2.2347e-20)
(0.233808 -0.235455 5.61896e-20)
(1.00001 -7.81626e-06 -4.96806e-21)
(1.00001 -2.9943e-05 -4.1205e-23)
(1.00002 -5.94589e-05 -2.49024e-26)
(1.00002 -9.77068e-05 1.28147e-22)
(1.00004 -0.000143309 -5.66491e-21)
(1.00005 -0.000198133 -8.85857e-23)
(1.00007 -0.000258615 9.00504e-23)
(1.0001 -0.000324744 0)
(1.00012 -0.000396601 5.98542e-21)
(1.00015 -0.00047429 0)
(1.00018 -0.000557884 -3.21681e-23)
(1.00022 -0.000647417 6.08662e-21)
(1.00025 -0.00074288 2.00393e-22)
(1.00029 -0.000844232 0)
(1.00033 -0.000951402 6.4231e-21)
(1.00038 -0.00106429 6.79584e-21)
(1.00042 -0.00118279 -2.15757e-22)
(1.00047 -0.00130675 4.38889e-22)
(1.00052 -0.00143602 0)
(1.00057 -0.00157041 7.25922e-21)
(1.00063 -0.00170976 0)
(1.00068 -0.00185386 -7.52876e-21)
(1.00074 -0.00200251 0)
(1.0008 -0.00215552 -4.90338e-22)
(1.00086 -0.00231269 4.99101e-22)
(1.00092 -0.00247382 8.10189e-21)
(1.00099 -0.00263872 -5.18361e-22)
(1.00105 -0.0028072 -4.42751e-25)
(1.00112 -0.00297909 -8.10702e-21)
(1.00118 -0.0031542 -8.17614e-21)
(1.00125 -0.00333238 -9.44627e-21)
(1.00132 -0.00351348 5.69133e-22)
(1.00139 -0.00369734 -5.79384e-22)
(1.00146 -0.00388385 -5.90993e-22)
(1.00153 -0.00407287 -6.20284e-25)
(1.0016 -0.00426431 -8.5875e-21)
(1.00167 -0.00445806 4.9749e-21)
(1.00175 -0.00465404 4.4325e-21)
(1.00182 -0.00485219 0)
(1.00189 -0.00505244 0)
(1.00196 -0.00525477 0)
(1.00203 -0.00545914 0)
(1.0021 -0.00566554 0)
(1.00217 -0.00587398 4.97104e-21)
(1.00224 -0.00608447 7.28807e-22)
(1.00231 -0.00629705 -6.6559e-21)
(1.00238 -0.00651176 7.5782e-22)
(1.00244 -0.00672867 0)
(1.00251 -0.00694783 7.13941e-21)
(1.00257 -0.00716934 5.58951e-21)
(1.00264 -0.00739329 6.52097e-21)
(1.0027 -0.00761978 6.7411e-21)
(1.00276 -0.00784894 -8.54845e-22)
(1.00282 -0.00808087 -5.1793e-21)
(1.00287 -0.00831574 6.17396e-21)
(1.00293 -0.00855367 -7.20578e-21)
(1.00298 -0.00879484 0)
(1.00303 -0.00903939 1.51158e-20)
(1.00308 -0.0092875 0)
(1.00313 -0.00953936 -1.57481e-20)
(1.00317 -0.00979515 1.70821e-20)
(1.00321 -0.0100551 7.24351e-21)
(1.00325 -0.0103193 1.67569e-20)
(1.00329 -0.010588 -7.41786e-21)
(1.00333 -0.0108615 -8.66495e-21)
(1.00336 -0.0111399 -1.10821e-20)
(1.00339 -0.0114235 1.1378e-21)
(1.00341 -0.0117124 1.16529e-21)
(1.00344 -0.0120069 3.27366e-24)
(1.00346 -0.0123072 -2.42911e-21)
(1.00348 -0.0126135 -3.5968e-24)
(1.00349 -0.0129261 -7.69385e-21)
(1.0035 -0.0132451 -2.59185e-21)
(1.00351 -0.0135708 1.5088e-21)
(1.00352 -0.0139034 1.35604e-21)
(1.00352 -0.0142432 8.20244e-21)
(1.00352 -0.0145903 7.01996e-21)
(1.00351 -0.014945 1.44931e-21)
(1.0035 -0.0153074 -1.47691e-21)
(1.00349 -0.0156779 -1.51588e-21)
(1.00347 -0.0160567 3.09539e-21)
(1.00345 -0.0164439 -1.58022e-21)
(1.00343 -0.0168398 -8.0369e-21)
(1.0034 -0.0172447 1.65404e-21)
(1.00337 -0.0176587 0)
(1.00333 -0.0180821 7.01297e-21)
(1.00329 -0.0185151 0)
(1.00324 -0.018958 -1.45478e-20)
(1.00319 -0.019411 7.52669e-21)
(1.00314 -0.0198743 -7.54348e-21)
(1.00308 -0.0203482 -7.89517e-21)
(1.00302 -0.0208331 7.91047e-21)
(1.00295 -0.021329 8.28629e-21)
(1.00287 -0.0218364 -2.10448e-21)
(1.00279 -0.0223555 2.14562e-21)
(1.00271 -0.0228865 1.09236e-20)
(1.00261 -0.0234299 -1.36627e-20)
(1.00252 -0.0239858 -4.51985e-21)
(1.00241 -0.0245547 -1.17513e-20)
(1.0023 -0.0251368 -2.44242e-21)
(1.00219 -0.0257326 2.49072e-21)
(1.00207 -0.0263423 -2.58697e-22)
(1.00194 -0.0269664 2.63681e-21)
(1.0018 -0.0276053 -2.68926e-21)
(1.00166 -0.0282594 0)
(1.00151 -0.0289291 0)
(1.00135 -0.0296149 0)
(1.00118 -0.0303173 0)
(1.00101 -0.0310367 0)
(1.00082 -0.0317738 -3.17162e-21)
(1.00063 -0.032529 1.60368e-20)
(1.00043 -0.0333029 3.34897e-21)
(1.00022 -0.0340962 -2.03742e-20)
(0.999999 -0.0349095 -1.07937e-20)
(0.999769 -0.0357434 1.47123e-20)
(0.999528 -0.0365986 0)
(0.999277 -0.037476 0)
(0.999014 -0.0383762 1.55321e-20)
(0.998741 -0.0393001 -1.59803e-20)
(0.998455 -0.0402485 -8.22243e-21)
(0.998156 -0.0412223 -1.72036e-20)
(0.997845 -0.0422225 -1.32651e-20)
(0.997521 -0.0432501 -4.54272e-21)
(0.997182 -0.044306 -9.24163e-21)
(0.99683 -0.0453914 0)
(0.996462 -0.0465075 9.81123e-21)
(0.996078 -0.0476554 0)
(0.995679 -0.0488363 0)
(0.995263 -0.0500517 1.62548e-20)
(0.994829 -0.0513029 -2.27952e-20)
(0.994377 -0.0525913 5.79948e-21)
(0.993905 -0.0539186 -1.22523e-20)
(0.993415 -0.0552861 0)
(0.992904 -0.0566958 6.45359e-21)
(0.992371 -0.0581492 -6.59265e-21)
(0.991819 -0.0596461 0)
(0.991245 -0.0611896 -2.83017e-20)
(0.990649 -0.0627825 0)
(0.990028 -0.0644266 -7.00718e-21)
(0.98938 -0.0661241 2.37402e-20)
(0.988704 -0.0678779 0)
(0.987998 -0.0696909 1.70988e-20)
(0.987262 -0.0715663 -3.46833e-20)
(0.986495 -0.0735072 9.04305e-21)
(0.985693 -0.0755168 -9.24308e-21)
(0.984858 -0.0775987 -3.85468e-20)
(0.983986 -0.0797564 1.00627e-20)
(0.983075 -0.0819938 -1.02876e-20)
(0.982126 -0.084315 1.65486e-20)
(0.981134 -0.0867244 5.53271e-21)
(0.980098 -0.0892267 -2.36513e-20)
(0.979017 -0.091827 -2.34452e-20)
(0.977887 -0.0945306 0)
(0.976706 -0.0973433 -6.52439e-21)
(0.975471 -0.100271 -2.76426e-20)
(0.974181 -0.103322 3.42077e-20)
(0.97283 -0.106501 0)
(0.971418 -0.109817 -2.94658e-20)
(0.969939 -0.113279 5.49309e-20)
(0.968391 -0.116895 2.32165e-20)
(0.966769 -0.120675 0)
(0.96507 -0.12463 0)
(0.963289 -0.128771 -2.75838e-20)
(0.961421 -0.133111 -9.52557e-21)
(0.959461 -0.137665 1.00972e-20)
(0.957404 -0.142446 -1.03374e-20)
(0.955244 -0.147471 0)
(0.952974 -0.152758 1.18547e-20)
(0.950589 -0.158328 1.30466e-20)
(0.94808 -0.164202 4.92131e-20)
(0.94544 -0.170404 -1.29427e-20)
(0.94266 -0.176961 1.32551e-20)
(0.939731 -0.183903 1.40601e-20)
(0.936643 -0.191264 -1.26027e-20)
(0.933386 -0.199079 1.33519e-20)
(0.929947 -0.207391 -1.36013e-20)
(0.926314 -0.216247 2.16067e-21)
(0.922472 -0.225698 0)
(0.918407 -0.235804 3.67195e-20)
(0.914102 -0.246633 0)
(0.909538 -0.258261 9.61443e-21)
(0.904695 -0.270777 -6.84667e-21)
(0.89955 -0.28428 0)
(0.894079 -0.298887 -8.44245e-20)
(0.888254 -0.314733 -1.08546e-20)
(0.882044 -0.331975 1.11079e-20)
(0.875413 -0.350795 -4.31496e-20)
(0.868324 -0.37141 0)
(0.86073 -0.394074 9.22585e-20)
(0.852581 -0.419091 1.12337e-20)
(0.843814 -0.446822 4.13798e-20)
(0.83434 -0.477678 3.53541e-20)
(0.823961 -0.512028 0)
(0.812076 -0.549807 8.0108e-21)
(0.796782 -0.589378 -2.81592e-20)
(0.773052 -0.6247 3.1624e-21)
(0.728852 -0.641392 1.48652e-20)
(0.645727 -0.612684 -1.02895e-20)
(0.489241 -0.496757 2.11805e-20)
(0.22219 -0.233798 -2.16017e-20)
(1.00001 -1.38195e-05 4.9915e-21)
(1.00001 -4.74992e-05 -6.20306e-23)
(1.00002 -8.84271e-05 -4.1117e-26)
(1.00002 -0.000136155 4.2883e-23)
(1.00003 -0.000190704 1.11911e-20)
(1.00005 -0.000251137 5.80214e-21)
(1.00006 -0.000317283 -9.06406e-23)
(1.00008 -0.000389203 0)
(1.00011 -0.000467023 -5.81742e-21)
(1.00013 -0.000550854 -6.34377e-21)
(1.00016 -0.000640748 6.22953e-21)
(1.00019 -0.000736691 0)
(1.00022 -0.00083862 -2.02641e-22)
(1.00025 -0.000946442 2.06248e-22)
(1.00029 -0.00106004 -6.751e-21)
(1.00033 -0.00117928 -6.8287e-21)
(1.00037 -0.00130401 0)
(1.00041 -0.00143407 0)
(1.00045 -0.00156929 0)
(1.0005 -0.00170948 0)
(1.00055 -0.00185444 -8.02105e-21)
(1.0006 -0.00200398 8.17231e-21)
(1.00065 -0.0021579 -7.8395e-21)
(1.00071 -0.002316 0)
(1.00076 -0.00247807 -5.0665e-22)
(1.00082 -0.00264392 5.15753e-22)
(1.00088 -0.00281337 -8.97915e-21)
(1.00094 -0.00298622 9.15007e-21)
(1.001 -0.0031623 9.24219e-21)
(1.00106 -0.00334142 3.91774e-21)
(1.00112 -0.00352344 -5.67377e-22)
(1.00118 -0.00370819 5.77622e-22)
(1.00125 -0.00389553 4.73731e-21)
(1.00131 -0.00408533 0)
(1.00138 -0.00427746 6.12343e-22)
(1.00144 -0.00447181 -6.76884e-22)
(1.00151 -0.00466829 -5.11597e-21)
(1.00157 -0.00486681 -5.21589e-21)
(1.00164 -0.00506731 4.65667e-21)
(1.0017 -0.00526971 6.73395e-22)
(1.00177 -0.005474 0)
(1.00183 -0.00568013 7.01079e-22)
(1.0019 -0.00588811 5.03626e-21)
(1.00196 -0.00609794 7.29075e-22)
(1.00202 -0.00630964 -7.42397e-22)
(1.00208 -0.00652325 7.58371e-22)
(1.00214 -0.00673881 4.67735e-21)
(1.0022 -0.00695638 7.87706e-22)
(1.00226 -0.00717605 -6.39379e-21)
(1.00231 -0.0073979 -6.60771e-21)
(1.00237 -0.00762202 0)
(1.00242 -0.00784852 9.46263e-22)
(1.00247 -0.00807753 -7.01871e-21)
(1.00252 -0.00830917 1.7777e-24)
(1.00257 -0.00854358 -1.81503e-21)
(1.00261 -0.00878093 9.25238e-22)
(1.00265 -0.00902136 7.61896e-21)
(1.00269 -0.00926505 -7.66618e-21)
(1.00273 -0.00951217 7.94087e-21)
(1.00277 -0.00976292 7.98834e-21)
(1.0028 -0.0100175 -1.64346e-20)
(1.00283 -0.0102761 -8.32677e-21)
(1.00286 -0.0105389 -7.43028e-21)
(1.00289 -0.0108061 2.85038e-24)
(1.00291 -0.0110779 -1.11542e-21)
(1.00293 -0.0113547 8.06079e-21)
(1.00295 -0.0116365 2.33095e-21)
(1.00296 -0.0119236 8.41837e-21)
(1.00297 -0.0122163 0)
(1.00298 -0.0125147 1.12782e-20)
(1.00298 -0.012819 -1.15231e-20)
(1.00299 -0.0131296 1.68431e-20)
(1.00298 -0.0134467 4.03268e-21)
(1.00298 -0.0137704 -1.0762e-20)
(1.00297 -0.014101 6.99059e-21)
(1.00296 -0.0144387 4.97657e-24)
(1.00294 -0.0147838 5.21105e-24)
(1.00292 -0.0151364 4.511e-21)
(1.0029 -0.0154968 1.5201e-21)
(1.00287 -0.0158653 6.27665e-21)
(1.00283 -0.016242 -1.58472e-21)
(1.0028 -0.0166273 0)
(1.00276 -0.0170212 1.66596e-21)
(1.00271 -0.0174241 7.18556e-24)
(1.00266 -0.0178361 -1.73782e-21)
(1.00261 -0.0182576 -7.06038e-21)
(1.00255 -0.0186888 0)
(1.00249 -0.0191298 5.52648e-21)
(1.00242 -0.0195809 2.07547e-21)
(1.00235 -0.0200425 -7.93183e-21)
(1.00227 -0.0205146 7.9477e-21)
(1.00219 -0.0209977 0)
(1.0021 -0.0214919 -8.34101e-21)
(1.002 -0.0219976 2.16616e-21)
(1.0019 -0.022515 8.97804e-21)
(1.0018 -0.0230444 6.92894e-21)
(1.00168 -0.0235861 9.20282e-21)
(1.00157 -0.0241405 0)
(1.00144 -0.0247077 -9.91651e-21)
(1.00131 -0.0252883 2.51804e-21)
(1.00117 -0.0258826 1.5689e-23)
(1.00103 -0.0264908 -2.9051e-21)
(1.00087 -0.0271135 -1.09957e-20)
(1.00071 -0.0277509 -1.12881e-20)
(1.00054 -0.0284036 0)
(1.00037 -0.0290719 -1.48468e-20)
(1.00018 -0.0297563 3.003e-21)
(0.999992 -0.0304573 0)
(0.999791 -0.0311753 0)
(0.999581 -0.031911 1.32626e-20)
(0.999361 -0.0326649 0)
(0.999132 -0.0334375 -1.40156e-20)
(0.998892 -0.0342294 -1.08499e-20)
(0.998642 -0.0350413 1.07548e-20)
(0.998382 -0.0358739 -1.47971e-20)
(0.99811 -0.0367278 0)
(0.997827 -0.0376038 -8.07334e-21)
(0.997532 -0.0385026 -8.31034e-21)
(0.997225 -0.0394251 -8.55614e-21)
(0.996905 -0.0403721 -4.45871e-21)
(0.996571 -0.0413444 -1.37466e-22)
(0.996224 -0.0423432 1.36254e-20)
(0.995862 -0.0433692 4.75817e-21)
(0.995486 -0.0444236 4.67579e-23)
(0.995094 -0.0455074 -1.00615e-20)
(0.994686 -0.0466217 1.03737e-20)
(0.994262 -0.0477679 -1.06982e-20)
(0.99382 -0.048947 -2.01909e-22)
(0.99336 -0.0501605 -5.66321e-21)
(0.992881 -0.0514098 2.3521e-20)
(0.992383 -0.0526962 -6.0985e-21)
(0.991865 -0.0540213 1.8535e-20)
(0.991326 -0.0553868 1.31875e-20)
(0.990765 -0.0567945 0)
(0.990181 -0.0582463 0)
(0.989574 -0.0597446 -7.38118e-21)
(0.988941 -0.0612915 1.45784e-20)
(0.988281 -0.0628891 -2.31667e-20)
(0.987594 -0.0645397 -2.3444e-20)
(0.986877 -0.0662457 -7.9119e-21)
(0.986131 -0.0680096 8.51565e-21)
(0.985353 -0.069834 -2.58803e-20)
(0.984543 -0.0717215 1.77879e-20)
(0.983698 -0.0736751 1.92102e-20)
(0.982818 -0.0756978 -1.99136e-20)
(0.981901 -0.077793 1.97879e-20)
(0.980945 -0.0799644 2.14182e-20)
(0.979947 -0.0822158 5.47289e-21)
(0.978907 -0.0845513 -5.07344e-20)
(0.977821 -0.0869754 0)
(0.976688 -0.0894927 2.37781e-20)
(0.975505 -0.0921083 6.3601e-21)
(0.97427 -0.0948276 2.03441e-20)
(0.972979 -0.0976564 2.79109e-20)
(0.971631 -0.100601 4.95772e-20)
(0.970221 -0.103668 7.30705e-21)
(0.968748 -0.106864 7.72791e-21)
(0.967206 -0.110198 -7.90779e-21)
(0.965593 -0.113677 -2.40443e-20)
(0.963904 -0.117311 8.30258e-21)
(0.962136 -0.121109 0)
(0.960283 -0.125083 0)
(0.958341 -0.129243 1.9057e-20)
(0.956304 -0.133603 -2.09119e-20)
(0.954168 -0.138175 0)
(0.951925 -0.142976 1.11742e-20)
(0.94957 -0.148021 -1.14425e-20)
(0.947095 -0.153328 -2.34561e-20)
(0.944493 -0.158918 -2.44632e-20)
(0.941756 -0.164811 -2.55161e-20)
(0.938874 -0.171033 0)
(0.935839 -0.177609 0)
(0.932639 -0.184571 0)
(0.929263 -0.191949 -3.02011e-20)
(0.925699 -0.199782 1.51188e-20)
(0.921933 -0.208111 -1.60541e-20)
(0.91795 -0.216982 2.00305e-20)
(0.913734 -0.226447 -4.69629e-20)
(0.909267 -0.236565 -9.58353e-20)
(0.904529 -0.247402 9.88899e-21)
(0.899498 -0.259036 0)
(0.894149 -0.271553 -4.15274e-20)
(0.888455 -0.285053 4.63152e-20)
(0.882385 -0.29965 5.60035e-20)
(0.875905 -0.315477 -4.95177e-20)
(0.868976 -0.332689 -1.22193e-20)
(0.861552 -0.351466 0)
(0.853585 -0.372021 -5.36407e-20)
(0.845015 -0.394603 -9.09274e-20)
(0.835773 -0.419509 -1.31248e-20)
(0.825779 -0.447091 -1.26245e-20)
(0.814915 -0.477742 -3.42184e-20)
(0.802953 -0.511801 0)
(0.789255 -0.54915 -4.04238e-20)
(0.771934 -0.588076 0)
(0.74615 -0.622534 -3.63067e-20)
(0.700708 -0.638214 -1.69533e-20)
(0.618034 -0.608759 -1.32719e-20)
(0.466288 -0.493107 -5.16903e-22)
(0.211263 -0.232513 -1.63518e-22)
(1.00002 -1.97201e-05 -5.01411e-21)
(1.00002 -6.52517e-05 0)
(1.00002 -0.000117434 0)
(1.00002 -0.00017642 -5.53936e-21)
(1.00003 -0.000241863 -1.12579e-20)
(1.00004 -0.00031351 -5.718e-21)
(1.00006 -0.000391228 -9.13168e-23)
(1.00008 -0.000474985 6.06446e-21)
(1.00011 -0.000564793 0)
(1.00013 -0.000660646 6.35088e-21)
(1.00016 -0.000762488 6.12066e-21)
(1.00019 -0.000870217 0)
(1.00022 -0.000983698 0)
(1.00026 -0.00110278 2.08132e-22)
(1.0003 -0.00122731 6.54558e-21)
(1.00034 -0.00135714 0)
(1.00038 -0.0014921 -2.20158e-22)
(1.00043 -0.00163203 2.24091e-22)
(1.00047 -0.00177675 -7.34299e-21)
(1.00052 -0.00192608 -4.65831e-22)
(1.00057 -0.00207984 8.03275e-21)
(1.00063 -0.00223783 -1.54729e-20)
(1.00068 -0.00239986 -7.22483e-23)
(1.00073 -0.00256575 0)
(1.00079 -0.00273529 -5.11928e-22)
(1.00085 -0.0029083 1.04286e-21)
(1.00091 -0.00308459 1.16722e-20)
(1.00097 -0.00326397 -8.08267e-21)
(1.00103 -0.00344627 -4.43928e-21)
(1.00109 -0.00363133 -4.47887e-21)
(1.00115 -0.00381897 4.61289e-21)
(1.00121 -0.00400905 4.7025e-21)
(1.00127 -0.00420142 -4.74279e-21)
(1.00134 -0.00439597 -4.8876e-21)
(1.0014 -0.00459258 0)
(1.00146 -0.00479114 -6.8863e-22)
(1.00152 -0.00499157 5.76556e-21)
(1.00159 -0.0051938 1.05051e-20)
(1.00165 -0.00539777 6.26438e-23)
(1.00171 -0.00560343 0)
(1.00177 -0.00581077 -6.96688e-22)
(1.00183 -0.00601977 -1.13888e-24)
(1.00189 -0.00623045 -5.03405e-21)
(1.00195 -0.00644283 7.39176e-22)
(1.002 -0.00665696 1.30461e-24)
(1.00206 -0.00687288 -7.72489e-21)
(1.00211 -0.00709067 8.64906e-22)
(1.00217 -0.0073104 5.64084e-21)
(1.00222 -0.00753217 8.15279e-22)
(1.00227 -0.00775609 6.61694e-21)
(1.00231 -0.00798227 -6.8448e-21)
(1.00236 -0.00821085 -7.71607e-22)
(1.0024 -0.00844195 8.8005e-21)
(1.00244 -0.00867572 1.9764e-24)
(1.00248 -0.00891233 2.07028e-24)
(1.00252 -0.00915194 -9.40102e-22)
(1.00255 -0.00939473 -7.63048e-21)
(1.00258 -0.00964088 0)
(1.00261 -0.00989058 -7.95314e-21)
(1.00264 -0.010144 0)
(1.00266 -0.0104014 9.33818e-21)
(1.00268 -0.010663 -9.6688e-21)
(1.0027 -0.0109289 0)
(1.00271 -0.0111994 -1.00933e-20)
(1.00273 -0.0114747 2.27449e-21)
(1.00273 -0.0117551 -1.03788e-20)
(1.00274 -0.0120407 1.18907e-21)
(1.00274 -0.0123318 -1.08352e-20)
(1.00274 -0.0126285 -1.24194e-21)
(1.00273 -0.0129313 -3.67098e-21)
(1.00273 -0.0132401 8.97508e-21)
(1.00271 -0.0135554 -3.92823e-21)
(1.0027 -0.0138773 -1.21905e-20)
(1.00268 -0.014206 -4.20815e-21)
(1.00265 -0.0145418 -4.19279e-21)
(1.00263 -0.0148849 -1.44554e-21)
(1.00259 -0.0152355 5.98302e-21)
(1.00256 -0.0155939 -6.00318e-21)
(1.00252 -0.0159602 -7.81725e-21)
(1.00247 -0.0163348 -4.69978e-21)
(1.00242 -0.0167177 1.62699e-21)
(1.00237 -0.0171093 -3.3234e-21)
(1.00231 -0.0175097 -7.48727e-24)
(1.00225 -0.0179193 -7.83539e-24)
(1.00218 -0.0183381 1.77878e-21)
(1.00211 -0.0187665 0)
(1.00203 -0.0192047 0)
(1.00195 -0.0196529 -5.82623e-21)
(1.00186 -0.0201114 -9.71701e-21)
(1.00177 -0.0205803 -1.82973e-22)
(1.00167 -0.02106 0)
(1.00156 -0.0215507 -2.11657e-21)
(1.00145 -0.0220526 -8.76951e-21)
(1.00133 -0.0225661 2.21194e-21)
(1.00121 -0.0230914 -6.70659e-21)
(1.00108 -0.0236289 -2.33227e-20)
(1.00094 -0.0241787 -7.30235e-21)
(1.0008 -0.0247412 2.46096e-21)
(1.00065 -0.0253168 -2.76616e-21)
(1.00049 -0.0259057 -7.87468e-21)
(1.00033 -0.0265083 -2.64227e-21)
(1.00016 -0.0271251 2.17686e-20)
(0.999976 -0.0277562 -2.99388e-22)
(0.999788 -0.0284023 1.41959e-20)
(0.999591 -0.0290636 -1.19243e-20)
(0.999386 -0.0297406 8.92003e-21)
(0.999171 -0.0304338 3.11954e-21)
(0.998948 -0.0311436 -3.18211e-21)
(0.998715 -0.0318705 -3.29478e-21)
(0.998472 -0.0326151 -6.55223e-21)
(0.998219 -0.0333779 -3.45541e-21)
(0.997956 -0.0341595 1.04752e-20)
(0.997682 -0.0349605 1.44251e-20)
(0.997397 -0.0357815 7.5487e-21)
(0.9971 -0.0366231 -3.8672e-21)
(0.996791 -0.0374861 0)
(0.99647 -0.0383712 3.96641e-21)
(0.996136 -0.0392792 1.25537e-20)
(0.995789 -0.0402109 1.29657e-20)
(0.995427 -0.041167 4.3674e-21)
(0.995052 -0.0421486 -1.4064e-20)
(0.994662 -0.0431565 9.54107e-21)
(0.994256 -0.0441917 -9.95388e-21)
(0.993834 -0.0452552 -1.53582e-20)
(0.993396 -0.0463482 1.0638e-20)
(0.99294 -0.0474716 0)
(0.992467 -0.0486269 5.59292e-21)
(0.991975 -0.0498151 1.72576e-20)
(0.991464 -0.0510376 -5.95913e-21)
(0.990932 -0.0522958 6.53376e-21)
(0.99038 -0.0535912 0)
(0.989806 -0.0549253 6.56653e-21)
(0.989209 -0.0562998 -1.99464e-20)
(0.988589 -0.0577166 0)
(0.987944 -0.0591774 -2.1952e-20)
(0.987273 -0.0606841 2.20323e-20)
(0.986575 -0.0622386 0)
(0.98585 -0.0638431 3.19269e-20)
(0.985095 -0.0654997 0)
(0.98431 -0.0672107 2.6064e-20)
(0.983492 -0.0689785 -1.79621e-20)
(0.982642 -0.070806 -1.861e-20)
(0.981756 -0.0726959 -1.90184e-20)
(0.980834 -0.0746513 -1.44755e-20)
(0.979873 -0.0766755 3.02291e-20)
(0.978873 -0.078772 2.17403e-20)
(0.97783 -0.0809444 -2.69825e-20)
(0.976744 -0.0831965 5.75106e-21)
(0.97561 -0.0855325 -6.93379e-21)
(0.974429 -0.0879569 -1.89721e-20)
(0.973196 -0.0904742 -6.34362e-21)
(0.97191 -0.0930896 0)
(0.970567 -0.0958083 1.27555e-21)
(0.969166 -0.0986363 -2.8066e-20)
(0.967702 -0.10158 -2.91876e-20)
(0.966172 -0.104645 0)
(0.964573 -0.10784 1.65756e-20)
(0.9629 -0.111171 1.72626e-20)
(0.961151 -0.114648 8.85224e-21)
(0.959321 -0.118279 -9.06089e-21)
(0.957404 -0.122074 -9.92257e-21)
(0.955396 -0.126044 -9.84172e-21)
(0.953292 -0.1302 2.12478e-20)
(0.951086 -0.134555 2.10531e-20)
(0.948771 -0.139122 -1.13765e-20)
(0.946341 -0.143917 -2.22729e-22)
(0.94379 -0.148955 3.73783e-20)
(0.941108 -0.154255 0)
(0.938288 -0.159837 -1.35145e-20)
(0.93532 -0.165722 1.38441e-20)
(0.932195 -0.171934 -1.47441e-20)
(0.928902 -0.1785 1.51056e-20)
(0.925428 -0.185449 0)
(0.921762 -0.192814 1.68075e-20)
(0.917889 -0.200632 -1.72218e-20)
(0.913793 -0.208943 -1.83327e-20)
(0.909458 -0.217795 -6.66731e-20)
(0.904865 -0.227237 4.81592e-20)
(0.899992 -0.23733 5.04016e-20)
(0.894817 -0.248138 -6.60397e-20)
(0.889314 -0.259738 1.11223e-20)
(0.883455 -0.272214 -1.1756e-20)
(0.877206 -0.285666 -3.47599e-20)
(0.870532 -0.300207 0)
(0.863391 -0.315967 6.32301e-20)
(0.855736 -0.333098 5.61278e-20)
(0.847514 -0.351778 -1.38117e-20)
(0.838662 -0.372214 4.01189e-20)
(0.829108 -0.394649 6.96584e-20)
(0.818769 -0.419375 -4.70911e-20)
(0.807541 -0.446729 -1.48178e-20)
(0.795286 -0.477088 6.17168e-20)
(0.781736 -0.510755 1.36223e-20)
(0.766217 -0.547548 -1.38983e-20)
(0.74684 -0.585651 -5.63201e-21)
(0.71892 -0.619003 9.00136e-20)
(0.672054 -0.633458 -3.89033e-20)
(0.589579 -0.603138 1.59724e-20)
(0.44248 -0.487941 0)
(0.199652 -0.230397 1.08235e-20)
(1.00002 -2.55767e-05 1.00645e-20)
(1.00002 -8.25327e-05 -5.32712e-21)
(1.00002 -0.000145815 5.47365e-21)
(1.00002 -0.000215467 -7.9627e-23)
(1.00003 -0.000291243 -3.82854e-23)
(1.00004 -0.000372868 0)
(1.00006 -0.00046016 0)
(1.00008 -0.000553042 -5.97662e-21)
(1.0001 -0.000651495 -6.13582e-21)
(1.00013 -0.000755504 -6.25323e-21)
(1.00015 -0.000865032 -6.32281e-21)
(1.00018 -0.000980009 -6.49494e-21)
(1.00021 -0.00110035 -6.4132e-21)
(1.00025 -0.00122595 6.74627e-21)
(1.00028 -0.00135672 -2.13755e-22)
(1.00032 -0.00149255 0)
(1.00036 -0.00163332 -6.91906e-21)
(1.0004 -0.0017789 -7.50459e-21)
(1.00044 -0.00192914 7.35007e-21)
(1.00049 -0.00208388 0)
(1.00053 -0.00224293 0)
(1.00058 -0.00240612 7.77901e-21)
(1.00063 -0.00257324 7.92785e-21)
(1.00068 -0.00274409 -8.16076e-21)
(1.00073 -0.00291847 0)
(1.00078 -0.00309618 0)
(1.00083 -0.00327702 -4.81504e-21)
(1.00089 -0.00346079 5.474e-22)
(1.00094 -0.0036473 4.44406e-21)
(1.001 -0.00383638 0)
(1.00105 -0.00402784 -5.19869e-21)
(1.00111 -0.00422155 -3.52443e-21)
(1.00117 -0.00441735 -5.45676e-21)
(1.00122 -0.00461511 9.84264e-21)
(1.00128 -0.00481472 0)
(1.00133 -0.00501609 5.72678e-21)
(1.00139 -0.00521911 -5.24792e-21)
(1.00145 -0.00542374 -1.26591e-21)
(1.0015 -0.00562991 -4.71607e-21)
(1.00156 -0.00583759 0)
(1.00161 -0.00604676 0)
(1.00166 -0.00625744 0)
(1.00171 -0.00646963 -5.17705e-21)
(1.00176 -0.00668336 -7.48215e-22)
(1.00181 -0.0068987 6.15385e-21)
(1.00186 -0.00711569 1.32554e-20)
(1.0019 -0.00733443 -1.35235e-20)
(1.00195 -0.00755499 -1.29888e-20)
(1.00199 -0.00777748 6.67334e-21)
(1.00203 -0.00800202 8.46189e-22)
(1.00207 -0.00822872 5.99245e-21)
(1.0021 -0.00845772 -7.80228e-22)
(1.00214 -0.00868917 1.79777e-21)
(1.00217 -0.00892322 -9.16552e-22)
(1.00219 -0.00916003 -9.37997e-22)
(1.00222 -0.00939979 -2.38349e-24)
(1.00224 -0.00964266 1.9535e-21)
(1.00226 -0.00988884 -9.96147e-22)
(1.00228 -0.0101385 0)
(1.0023 -0.0103919 0)
(1.00231 -0.0106493 9.63713e-21)
(1.00232 -0.0109107 1.52039e-20)
(1.00232 -0.0111765 8.94585e-21)
(1.00232 -0.0114469 8.98946e-21)
(1.00232 -0.0117221 2.31614e-21)
(1.00232 -0.0120024 8.37e-21)
(1.00231 -0.0122879 -1.21154e-21)
(1.0023 -0.0125789 1.2343e-21)
(1.00228 -0.0128756 1.26602e-21)
(1.00226 -0.0131783 -5.11867e-21)
(1.00224 -0.0134872 4.01562e-21)
(1.00221 -0.0138026 -4.10204e-21)
(1.00218 -0.0141246 4.09712e-21)
(1.00214 -0.0144535 5.60035e-21)
(1.0021 -0.0147895 0)
(1.00206 -0.0151329 1.48175e-21)
(1.00201 -0.0154839 -1.39038e-21)
(1.00196 -0.0158427 0)
(1.0019 -0.0162095 -1.71624e-21)
(1.00184 -0.0165846 1.61817e-21)
(1.00177 -0.0169682 0)
(1.0017 -0.0173605 -1.70341e-21)
(1.00163 -0.0177618 7.02887e-21)
(1.00154 -0.0181722 1.77773e-21)
(1.00146 -0.018592 0)
(1.00137 -0.0190215 0)
(1.00127 -0.0194609 0)
(1.00116 -0.0199103 -2.14533e-21)
(1.00106 -0.0203701 4.02147e-21)
(1.00094 -0.0208405 4.02853e-21)
(1.00082 -0.0213217 1.06582e-20)
(1.00069 -0.021814 8.76831e-21)
(1.00056 -0.0223177 -2.14329e-22)
(1.00042 -0.022833 0)
(1.00028 -0.0233603 7.11784e-21)
(1.00012 -0.0238997 1.1854e-20)
(0.999963 -0.0244516 9.71004e-21)
(0.999795 -0.0250164 1.0221e-20)
(0.99962 -0.0255943 1.02225e-20)
(0.999438 -0.0261856 1.04914e-20)
(0.999247 -0.0267908 -2.73669e-21)
(0.999048 -0.0274101 -8.26507e-21)
(0.998841 -0.028044 2.30186e-20)
(0.998625 -0.0286929 2.96489e-21)
(0.9984 -0.0293571 5.90577e-21)
(0.998166 -0.0300371 -9.54871e-21)
(0.997923 -0.0307334 0)
(0.997669 -0.0314464 0)
(0.997405 -0.0321766 -1.71532e-20)
(0.997131 -0.0329246 3.46921e-21)
(0.996846 -0.0336909 0)