# Force coefficients
# liftDir    : (0.000000e+00 1.000000e+00 0.000000e+00)
# dragDir    : (1.000000e+00 0.000000e+00 0.000000e+00)
# pitchAxis  : (0.000000e+00 0.000000e+00 1.000000e+00)
# magUInf    : 1.000000e+00
# lRef       : 1.000000e+00
# Aref       : 2.000000e+00
# CofR       : (0.000000e+00 0.000000e+00 0.000000e+00)
# Time       	Cm           	Cd           	Cl           	Cl(f)        	Cl(r)        	Cm	Cd	Cl	Cl(f)	Cl(r)
2.500000e-01	7.851704e+03	-4.731679e+07	1.239496e+05	6.982650e+04	5.412309e+04
5.000000e-01	7.393172e+03	-3.421542e+06	-4.210409e+04	-1.365887e+04	-2.844522e+04
7.500000e-01	7.011605e+03	-1.376025e+06	-2.078869e+04	-3.382739e+03	-1.740595e+04
1.000000e+00	6.676233e+03	-5.268085e+05	-8.653475e+03	2.349496e+03	-1.100297e+04
1.250000e+00	6.373854e+03	-4.391106e+04	-4.608360e+02	6.143436e+03	-6.604272e+03
1.500000e+00	6.098578e+03	2.662310e+05	3.937491e+03	8.067324e+03	-4.129833e+03
1.750000e+00	5.847494e+03	4.901326e+05	7.911179e+03	9.803083e+03	-1.891904e+03
2.000000e+00	5.618642e+03	6.665302e+05	1.028617e+04	1.076173e+04	-4.755577e+02
2.250000e+00	5.409873e+03	8.150844e+05	1.126535e+04	1.104255e+04	2.228043e+02
2.500000e+00	5.218301e+03	9.454259e+05	1.347740e+04	1.195700e+04	1.520401e+03
2.750000e+00	5.041864e+03	1.063634e+06	1.434025e+04	1.221199e+04	2.128260e+03
3.000000e+00	4.876742e+03	1.171363e+06	1.587204e+04	1.281276e+04	3.059276e+03
3.250000e+00	4.721737e+03	1.271287e+06	1.614456e+04	1.279401e+04	3.350541e+03
3.500000e+00	4.575984e+03	1.366035e+06	1.652789e+04	1.283993e+04	3.687961e+03
3.750000e+00	4.439684e+03	1.456221e+06	1.665816e+04	1.276876e+04	3.889397e+03
4.000000e+00	4.312494e+03	1.542829e+06	1.720218e+04	1.291358e+04	4.288594e+03
4.250000e+00	4.193236e+03	1.626187e+06	1.742680e+04	1.290664e+04	4.520164e+03
4.500000e+00	4.082815e+03	1.707207e+06	1.724286e+04	1.270425e+04	4.538617e+03
4.750000e+00	3.978871e+03	1.786662e+06	1.800059e+04	1.297917e+04	5.021425e+03
5.000000e+00	3.882309e+03	1.863465e+06	1.763409e+04	1.269935e+04	4.934734e+03
5.250000e+00	3.792511e+03	1.938712e+06	1.766368e+04	1.262435e+04	5.039328e+03
5.500000e+00	3.709069e+03	2.011377e+06	1.721962e+04	1.231888e+04	4.900742e+03
5.750000e+00	3.630864e+03	2.082240e+06	1.737611e+04	1.231892e+04	5.057191e+03
6.000000e+00	3.558180e+03	2.152762e+06	1.725113e+04	1.218374e+04	5.067383e+03
6.250000e+00	3.490414e+03	2.220858e+06	1.719833e+04	1.208958e+04	5.108751e+03
6.500000e+00	3.426593e+03	2.288204e+06	1.694335e+04	1.189827e+04	5.045084e+03
6.750000e+00	3.366395e+03	2.354312e+06	1.679600e+04	1.176439e+04	5.031603e+03
7.000000e+00	3.309612e+03	2.419912e+06	1.682601e+04	1.172262e+04	5.103394e+03
7.250000e+00	3.256343e+03	2.484656e+06	1.679664e+04	1.165466e+04	5.141975e+03
7.500000e+00	3.206421e+03	2.547945e+06	1.664412e+04	1.152848e+04	5.115639e+03
7.750000e+00	3.159521e+03	2.610328e+06	1.681654e+04	1.156779e+04	5.248748e+03
8.000000e+00	3.114930e+03	2.671459e+06	1.737851e+04	1.180419e+04	5.574328e+03
8.250000e+00	3.074662e+03	2.732143e+06	1.548418e+04	1.081675e+04	4.667431e+03
8.500000e+00	3.035227e+03	2.792347e+06	1.617573e+04	1.112309e+04	5.052636e+03
8.750000e+00	2.998481e+03	2.851198e+06	1.600002e+04	1.099849e+04	5.001531e+03
9.000000e+00	2.963346e+03	2.909216e+06	1.589300e+04	1.090984e+04	4.983152e+03
9.250000e+00	2.928679e+03	2.967002e+06	1.547885e+04	1.066810e+04	4.810745e+03
9.500000e+00	2.895181e+03	3.023311e+06	1.555244e+04	1.067140e+04	4.881038e+03
9.750000e+00	2.863127e+03	3.079102e+06	1.544592e+04	1.058609e+04	4.859832e+03
1.000000e+01	2.832792e+03	3.134368e+06	1.497368e+04	1.031963e+04	4.654047e+03
1.025000e+01	2.803836e+03	3.188203e+06	1.484347e+04	1.022557e+04	4.617898e+03
1.050000e+01	2.777022e+03	3.241843e+06	1.402244e+04	9.788241e+03	4.234196e+03
1.075000e+01	2.751216e+03	3.294212e+06	1.472253e+04	1.011248e+04	4.610047e+03
1.100000e+01	2.727314e+03	3.345526e+06	1.412730e+04	9.790963e+03	4.336335e+03
1.125000e+01	2.705214e+03	3.396696e+06	1.389841e+04	9.654417e+03	4.243989e+03
1.150000e+01	2.684100e+03	3.447533e+06	1.439131e+04	9.879754e+03	4.511553e+03
1.175000e+01	2.664219e+03	3.496340e+06	1.355682e+04	9.442630e+03	4.114193e+03
1.200000e+01	2.645348e+03	3.544818e+06	1.316601e+04	9.228355e+03	3.937659e+03
1.225000e+01	2.628187e+03	3.592831e+06	1.261387e+04	8.935121e+03	3.678746e+03
1.250000e+01	2.611059e+03	3.640558e+06	1.298959e+04	9.105854e+03	3.883736e+03
1.275000e+01	2.595353e+03	3.687364e+06	1.379662e+04	9.493665e+03	4.302959e+03
1.300000e+01	2.580491e+03	3.734177e+06	1.167239e+04	8.416688e+03	3.255705e+03
1.325000e+01	2.565601e+03	3.779251e+06	1.179986e+04	8.465532e+03	3.334331e+03
1.350000e+01	2.552704e+03	3.823567e+06	1.148908e+04	8.297246e+03	3.191839e+03
1.375000e+01	2.537599e+03	3.867647e+06	1.131802e+04	8.196608e+03	3.121410e+03
1.400000e+01	2.523394e+03	3.911527e+06	1.058218e+04	7.814486e+03	2.767698e+03
1.425000e+01	2.510974e+03	3.952767e+06	1.078440e+04	7.903173e+03	2.881225e+03
1.450000e+01	2.498715e+03	3.995828e+06	1.113396e+04	8.065695e+03	3.068264e+03
1.475000e+01	2.482217e+03	4.036442e+06	9.785403e+03	7.374919e+03	2.410485e+03
1.500000e+01	2.468354e+03	4.077615e+06	9.714976e+03	7.325842e+03	2.389134e+03
1.525000e+01	2.455466e+03	4.116863e+06	9.889785e+03	7.400359e+03	2.489426e+03
1.550000e+01	2.440655e+03	4.157053e+06	8.992401e+03	6.936856e+03	2.055545e+03
1.575000e+01	2.425389e+03	4.194264e+06	9.337067e+03	7.093922e+03	2.243145e+03
1.600000e+01	2.409908e+03	4.233454e+06	8.853208e+03	6.836512e+03	2.016696e+03
1.625000e+01	2.394364e+03	4.269815e+06	8.476248e+03	6.632488e+03	1.843760e+03
1.650000e+01	2.377471e+03	4.306798e+06	7.434324e+03	6.094633e+03	1.339691e+03
1.675000e+01	2.360597e+03	4.342250e+06	8.191702e+03	6.456448e+03	1.735254e+03
1.700000e+01	2.342700e+03	4.377044e+06	8.451058e+03	6.568229e+03	1.882829e+03
1.725000e+01	2.324677e+03	4.411444e+06	6.797962e+03	5.723658e+03	1.074303e+03
1.750000e+01	2.303328e+03	4.445219e+06	6.913884e+03	5.760271e+03	1.153614e+03
1.775000e+01	2.281649e+03	4.478029e+06	6.983796e+03	5.773547e+03	1.210249e+03
1.800000e+01	2.259871e+03	4.509797e+06	6.352602e+03	5.436172e+03	9.164298e+02
