# Force coefficients
# liftDir    : (0.000000e+00 1.000000e+00 0.000000e+00)
# dragDir    : (1.000000e+00 0.000000e+00 0.000000e+00)
# pitchAxis  : (0.000000e+00 0.000000e+00 1.000000e+00)
# magUInf    : 1.000000e+00
# lRef       : 1.000000e+00
# Aref       : 2.000000e+00
# CofR       : (0.000000e+00 0.000000e+00 0.000000e+00)
# Time       	Cm           	Cd           	Cl           	Cl(f)        	Cl(r)        	Cm	Cd	Cl	Cl(f)	Cl(r)
1.850000e+01	2.213272e+03	4.572046e+06	6.381581e+03	5.404063e+03	9.775188e+02
1.900000e+01	2.161702e+03	4.631717e+06	6.888144e+03	5.605774e+03	1.282370e+03
1.950000e+01	2.103940e+03	4.686163e+06	3.601828e+03	3.904854e+03	-3.030263e+02
2.000000e+01	2.044387e+03	4.740260e+06	3.740079e+03	3.914426e+03	-1.743474e+02
2.050000e+01	1.981456e+03	4.792197e+06	3.420939e+03	3.691925e+03	-2.709861e+02
2.100000e+01	1.916840e+03	4.837184e+06	2.496706e+03	3.165194e+03	-6.684873e+02
2.150000e+01	1.850263e+03	4.883762e+06	1.719827e+03	2.710176e+03	-9.903491e+02
2.200000e+01	1.783977e+03	4.922783e+06	1.615687e+03	2.591820e+03	-9.761333e+02
2.250000e+01	1.720869e+03	4.958309e+06	-6.712247e+01	1.687308e+03	-1.754430e+03
2.300000e+01	1.659094e+03	4.992686e+06	4.648115e+02	1.891500e+03	-1.426688e+03
2.350000e+01	1.598711e+03	5.022841e+06	2.447786e+00	1.599935e+03	-1.597487e+03
2.400000e+01	1.539227e+03	5.046823e+06	-1.556877e+03	7.607881e+02	-2.317665e+03
2.450000e+01	1.486313e+03	5.066796e+06	-2.217671e+03	3.774780e+02	-2.595149e+03
2.500000e+01	1.440163e+03	5.086326e+06	-2.082390e+03	3.989687e+02	-2.481358e+03
2.550000e+01	1.398106e+03	5.097496e+06	-3.686601e+03	-4.451942e+02	-3.241406e+03
2.600000e+01	1.365235e+03	5.105406e+06	-3.144150e+03	-2.068397e+02	-2.937310e+03
2.650000e+01	1.338389e+03	5.109734e+06	-4.566072e+03	-9.446474e+02	-3.621425e+03
2.700000e+01	1.319113e+03	5.108797e+06	-4.945976e+03	-1.153875e+03	-3.792101e+03
2.750000e+01	1.305962e+03	5.100819e+06	-5.104682e+03	-1.246378e+03	-3.858303e+03
2.800000e+01	1.299843e+03	5.089616e+06	-6.069133e+03	-1.734724e+03	-4.334409e+03
2.850000e+01	1.304849e+03	5.073473e+06	-7.739935e+03	-2.565118e+03	-5.174816e+03
2.900000e+01	1.318231e+03	5.053651e+06	-7.037107e+03	-2.200322e+03	-4.836785e+03
2.950000e+01	1.336713e+03	5.028591e+06	-8.800008e+03	-3.063291e+03	-5.736717e+03
3.000000e+01	1.363618e+03	4.999857e+06	-9.729613e+03	-3.501189e+03	-6.228424e+03
3.050000e+01	1.391884e+03	4.967192e+06	-1.067257e+04	-3.944402e+03	-6.728169e+03
3.100000e+01	1.416686e+03	4.930635e+06	-1.092647e+04	-4.046547e+03	-6.879919e+03
3.150000e+01	1.436109e+03	4.890551e+06	-1.198736e+04	-4.557572e+03	-7.429790e+03
3.200000e+01	1.449794e+03	4.848314e+06	-1.312429e+04	-5.112350e+03	-8.011938e+03
3.250000e+01	1.455842e+03	4.803488e+06	-1.333052e+04	-5.209416e+03	-8.121101e+03
3.300000e+01	1.455821e+03	4.755668e+06	-1.414157e+04	-5.614966e+03	-8.526607e+03
3.350000e+01	1.448948e+03	4.706895e+06	-1.512200e+04	-6.112053e+03	-9.009949e+03
3.400000e+01	1.434663e+03	4.656272e+06	-1.562524e+04	-6.377958e+03	-9.247284e+03
3.450000e+01	1.418781e+03	4.603080e+06	-1.639190e+04	-6.777170e+03	-9.614732e+03
3.500000e+01	1.392710e+03	4.549887e+06	-1.710240e+04	-7.158490e+03	-9.943910e+03
3.550000e+01	1.362675e+03	4.492465e+06	-1.805370e+04	-7.664177e+03	-1.038953e+04
3.600000e+01	1.327260e+03	4.435434e+06	-1.900946e+04	-8.177471e+03	-1.083199e+04
3.650000e+01	1.284434e+03	4.380228e+06	-1.969457e+04	-8.562852e+03	-1.113172e+04
3.700000e+01	1.235324e+03	4.324706e+06	-2.028485e+04	-8.907101e+03	-1.137775e+04
3.750000e+01	1.174363e+03	4.272335e+06	-2.120231e+04	-9.426794e+03	-1.177552e+04
3.800000e+01	1.093975e+03	4.218183e+06	-2.165492e+04	-9.733486e+03	-1.192144e+04
3.850000e+01	9.663337e+02	4.167173e+06	-2.228265e+04	-1.017499e+04	-1.210766e+04
3.900000e+01	7.175593e+02	4.121189e+06	-2.357068e+04	-1.106778e+04	-1.250290e+04
3.950000e+01	2.816749e+02	4.082111e+06	-2.360920e+04	-1.152293e+04	-1.208628e+04
4.000000e+01	-4.682683e+02	4.050584e+06	-2.335437e+04	-1.214545e+04	-1.120892e+04
4.050000e+01	-1.622690e+03	4.027876e+06	-2.484109e+04	-1.404324e+04	-1.079786e+04
4.100000e+01	-3.223359e+03	4.016088e+06	-2.504467e+04	-1.574569e+04	-9.298975e+03
4.150000e+01	-5.269256e+03	4.020577e+06	-2.629819e+04	-1.841835e+04	-7.879837e+03
4.200000e+01	-7.706003e+03	4.036882e+06	-2.582528e+04	-2.061864e+04	-5.206636e+03
4.250000e+01	-1.011662e+04	4.072794e+06	-2.592563e+04	-2.307944e+04	-2.846194e+03
4.300000e+01	-1.208952e+04	4.126935e+06	-2.716084e+04	-2.566994e+04	-1.490897e+03
4.350000e+01	-1.336660e+04	4.198406e+06	-2.727833e+04	-2.700577e+04	-2.725636e+02
4.400000e+01	-1.378410e+04	4.289643e+06	-2.804719e+04	-2.780770e+04	-2.394971e+02
4.450000e+01	-1.328210e+04	4.396722e+06	-2.459291e+04	-2.557855e+04	9.856466e+02
4.500000e+01	-1.202437e+04	4.523120e+06	-2.688673e+04	-2.546774e+04	-1.418992e+03
4.550000e+01	-1.034823e+04	4.660557e+06	-2.744254e+04	-2.406950e+04	-3.373040e+03
4.600000e+01	-8.613758e+03	4.806748e+06	-2.673140e+04	-2.197946e+04	-4.751940e+03
4.650000e+01	-7.084762e+03	4.940616e+06	-2.567737e+04	-1.992345e+04	-5.753925e+03
4.700000e+01	-5.733513e+03	5.081061e+06	-2.527347e+04	-1.837025e+04	-6.903221e+03
4.750000e+01	-4.401475e+03	5.192173e+06	-2.400958e+04	-1.640627e+04	-7.603317e+03
4.800000e+01	-3.209128e+03	5.294230e+06	-2.272314e+04	-1.457070e+04	-8.152442e+03
4.850000e+01	-2.202481e+03	5.361644e+06	-2.066669e+04	-1.253582e+04	-8.130862e+03
4.900000e+01	-1.266857e+03	5.409721e+06	-2.028839e+04	-1.141105e+04	-8.877338e+03
4.950000e+01	-4.592975e+02	5.432633e+06	-1.856728e+04	-9.742940e+03	-8.824345e+03
5.000000e+01	1.920341e+02	5.434168e+06	-1.530509e+04	-7.460512e+03	-7.844581e+03
5.050000e+01	7.728559e+02	5.412061e+06	-1.270959e+04	-5.581939e+03	-7.127651e+03
5.100000e+01	1.272675e+03	5.363136e+06	-1.074307e+04	-4.098858e+03	-6.644208e+03
5.150000e+01	1.662578e+03	5.302658e+06	-8.112660e+03	-2.393753e+03	-5.718908e+03
5.200000e+01	1.936582e+03	5.219676e+06	-5.146598e+03	-6.367173e+02	-4.509881e+03
5.250000e+01	2.092423e+03	5.134163e+06	-3.008746e+03	5.880503e+02	-3.596796e+03
5.300000e+01	2.184655e+03	5.035614e+06	1.773625e+03	3.071467e+03	-1.297842e+03
5.350000e+01	2.266707e+03	4.930625e+06	2.025099e+03	3.279256e+03	-1.254158e+03
5.400000e+01	2.387195e+03	4.826914e+06	5.408805e+03	5.091598e+03	3.172068e+02
5.450000e+01	2.565483e+03	4.716466e+06	9.773286e+03	7.452126e+03	2.321160e+03
5.500000e+01	2.890135e+03	4.604176e+06	1.420137e+04	9.990821e+03	4.210551e+03
5.550000e+01	3.355590e+03	4.495749e+06	1.767889e+04	1.219504e+04	5.483855e+03
5.600000e+01	4.005821e+03	4.387472e+06	2.135202e+04	1.468183e+04	6.670189e+03
5.650000e+01	4.763726e+03	4.280488e+06	2.565511e+04	1.759128e+04	8.063829e+03
5.700000e+01	5.762019e+03	4.174897e+06	3.131588e+04	2.141996e+04	9.895922e+03
5.750000e+01	7.025695e+03	4.071880e+06	3.703079e+04	2.554109e+04	1.148970e+04
5.800000e+01	8.576394e+03	3.972247e+06	4.226950e+04	2.971114e+04	1.255836e+04
5.850000e+01	1.028204e+04	3.876540e+06	4.734030e+04	3.395219e+04	1.338811e+04
5.900000e+01	1.209956e+04	3.786980e+06	5.295800e+04	3.857856e+04	1.437944e+04
5.950000e+01	1.399710e+04	3.704872e+06	5.751094e+04	4.275257e+04	1.475837e+04
6.000000e+01	1.634565e+04	3.630423e+06	6.210733e+04	4.739932e+04	1.470801e+04
6.050000e+01	1.803825e+04	3.566129e+06	6.617372e+04	5.112511e+04	1.504861e+04
6.100000e+01	1.893883e+04	3.515497e+06	6.793071e+04	5.290418e+04	1.502653e+04
6.150000e+01	1.904028e+04	3.482215e+06	6.819857e+04	5.313957e+04	1.505900e+04
6.200000e+01	1.858158e+04	3.470301e+06	6.678929e+04	5.197623e+04	1.481306e+04
6.250000e+01	1.740268e+04	3.474267e+06	6.175452e+04	4.827994e+04	1.347458e+04
6.300000e+01	1.560754e+04	3.500979e+06	5.659923e+04	4.390716e+04	1.269207e+04
6.350000e+01	1.306514e+04	3.557920e+06	4.888606e+04	3.750817e+04	1.137789e+04
6.400000e+01	1.028779e+04	3.635604e+06	4.022300e+04	3.039929e+04	9.823706e+03
6.450000e+01	7.398931e+03	3.738785e+06	3.023613e+04	2.251699e+04	7.719133e+03
6.500000e+01	4.915060e+03	3.869146e+06	1.962391e+04	1.472701e+04	4.896893e+03
6.550000e+01	3.231484e+03	4.031976e+06	9.462692e+03	7.962830e+03	1.499862e+03
6.600000e+01	2.669551e+03	4.230214e+06	-1.409117e+03	1.964992e+03	-3.374109e+03
6.650000e+01	2.410691e+03	4.418569e+06	-1.360026e+04	-4.389439e+03	-9.210821e+03
6.700000e+01	3.321348e+03	4.611229e+06	-2.511648e+04	-9.236894e+03	-1.587959e+04
6.750000e+01	5.027037e+03	4.794481e+06	-3.771641e+04	-1.383117e+04	-2.388524e+04
6.800000e+01	7.122082e+03	4.964888e+06	-4.748258e+04	-1.661921e+04	-3.086337e+04
6.850000e+01	8.845539e+03	5.092071e+06	-6.026266e+04	-2.128579e+04	-3.897687e+04
6.900000e+01	9.874946e+03	5.190335e+06	-6.956165e+04	-2.490588e+04	-4.465577e+04
6.950000e+01	9.971071e+03	5.257921e+06	-7.751036e+04	-2.878411e+04	-4.872625e+04
7.000000e+01	9.265766e+03	5.309506e+06	-8.242567e+04	-3.194707e+04	-5.047860e+04
7.050000e+01	7.744384e+03	5.355945e+06	-8.939030e+04	-3.695077e+04	-5.243953e+04
7.100000e+01	5.795352e+03	5.395600e+06	-9.285563e+04	-4.063246e+04	-5.222317e+04
7.150000e+01	3.890490e+03	5.440323e+06	-9.650499e+04	-4.436200e+04	-5.214298e+04
7.200000e+01	2.329238e+03	5.477793e+06	-1.000560e+05	-4.769874e+04	-5.235722e+04
7.250000e+01	1.195162e+03	5.510945e+06	-1.028625e+05	-5.023610e+04	-5.262642e+04
7.300000e+01	2.757449e+02	5.525094e+06	-1.044828e+05	-5.196563e+04	-5.251712e+04
7.350000e+01	-6.011869e+02	5.514604e+06	-1.048721e+05	-5.303724e+04	-5.183486e+04
7.400000e+01	-1.559523e+03	5.477601e+06	-1.020925e+05	-5.260578e+04	-4.948674e+04
7.450000e+01	-2.652106e+03	5.426769e+06	-9.877198e+04	-5.203810e+04	-4.673388e+04
7.500000e+01	-3.886503e+03	5.372638e+06	-9.377294e+04	-5.077297e+04	-4.299997e+04
7.550000e+01	-5.151358e+03	5.322455e+06	-8.655763e+04	-4.843017e+04	-3.812746e+04
7.600000e+01	-6.262223e+03	5.283522e+06	-7.671413e+04	-4.461929e+04	-3.209484e+04
7.650000e+01	-7.185127e+03	5.260219e+06	-6.601794e+04	-4.019410e+04	-2.582384e+04
7.700000e+01	-7.893138e+03	5.248381e+06	-5.246186e+04	-3.412407e+04	-1.833779e+04
7.750000e+01	-8.385533e+03	5.243219e+06	-3.748062e+04	-2.712584e+04	-1.035478e+04
7.800000e+01	-8.705519e+03	5.239484e+06	-2.093451e+04	-1.917277e+04	-1.761736e+03
7.850000e+01	-8.870209e+03	5.233791e+06	-1.943210e+03	-9.841814e+03	7.898604e+03
7.900000e+01	-8.885731e+03	5.228524e+06	1.740892e+04	-1.812710e+02	1.759019e+04
7.950000e+01	-8.761418e+03	5.223805e+06	3.807530e+04	1.027623e+04	2.779907e+04
8.000000e+01	-8.489503e+03	5.220819e+06	5.970083e+04	2.136091e+04	3.833992e+04
8.050000e+01	-8.056163e+03	5.223326e+06	8.190308e+04	3.289538e+04	4.900770e+04
8.100000e+01	-7.493518e+03	5.229399e+06	1.030725e+05	4.404274e+04	5.902978e+04
8.150000e+01	-6.837698e+03	5.240659e+06	1.240004e+05	5.516249e+04	6.883789e+04
8.200000e+01	-6.149405e+03	5.256134e+06	1.436658e+05	6.568350e+04	7.798231e+04
8.250000e+01	-5.276040e+03	5.274282e+06	1.632995e+05	7.637373e+04	8.692581e+04
8.300000e+01	-4.196782e+03	5.295633e+06	1.810073e+05	8.630685e+04	9.470041e+04
8.350000e+01	-3.003937e+03	5.318479e+06	1.965526e+05	9.527236e+04	1.012802e+05
8.400000e+01	-1.840649e+03	5.340714e+06	2.093470e+05	1.028329e+05	1.065142e+05
8.450000e+01	-5.567772e+02	5.363959e+06	2.187044e+05	1.087954e+05	1.099090e+05
8.500000e+01	7.214727e+02	5.386477e+06	2.254465e+05	1.134447e+05	1.120018e+05
8.550000e+01	1.868928e+03	5.410375e+06	2.276143e+05	1.156761e+05	1.119382e+05
8.600000e+01	2.843012e+03	5.432944e+06	2.262087e+05	1.159473e+05	1.102613e+05
8.650000e+01	3.727661e+03	5.455447e+06	2.191192e+05	1.132873e+05	1.058319e+05
8.700000e+01	4.533082e+03	5.477385e+06	2.088522e+05	1.089592e+05	9.989303e+04
8.750000e+01	5.118526e+03	5.498547e+06	1.951177e+05	1.026774e+05	9.244035e+04
8.800000e+01	5.386798e+03	5.519001e+06	1.776190e+05	9.419627e+04	8.342268e+04
8.850000e+01	5.376582e+03	5.540321e+06	1.594690e+05	8.511109e+04	7.435793e+04
8.900000e+01	5.163567e+03	5.561206e+06	1.375303e+05	7.392874e+04	6.360160e+04
8.950000e+01	4.817932e+03	5.582586e+06	1.124385e+05	6.103716e+04	5.140129e+04
9.000000e+01	4.362872e+03	5.604181e+06	8.739459e+04	4.806017e+04	3.933442e+04
9.050000e+01	3.783044e+03	5.625389e+06	6.040371e+04	3.398490e+04	2.641881e+04
9.100000e+01	3.049534e+03	5.647138e+06	3.146378e+04	1.878142e+04	1.268236e+04
9.150000e+01	2.158303e+03	5.668564e+06	4.546208e+03	4.431407e+03	1.148010e+02
9.200000e+01	1.521341e+03	5.689441e+06	-2.240294e+04	-9.680130e+03	-1.272281e+04
9.250000e+01	1.347492e+03	5.709255e+06	-4.544416e+04	-2.137459e+04	-2.406957e+04
9.300000e+01	8.838778e+02	5.727178e+06	-6.662037e+04	-3.242631e+04	-3.419406e+04
9.350000e+01	1.912468e+02	5.742466e+06	-8.548249e+04	-4.255000e+04	-4.293249e+04
9.400000e+01	-6.565574e+02	5.753911e+06	-1.008801e+05	-5.109660e+04	-4.978349e+04
9.450000e+01	-1.599084e+03	5.760219e+06	-1.136697e+05	-5.843392e+04	-5.523575e+04
9.500000e+01	-2.564509e+03	5.761192e+06	-1.231488e+05	-6.413889e+04	-5.900987e+04
9.550000e+01	-3.519163e+03	5.757773e+06	-1.276826e+05	-6.736048e+04	-6.032215e+04
9.600000e+01	-4.441567e+03	5.750185e+06	-1.268502e+05	-6.786667e+04	-5.898353e+04
9.650000e+01	-5.310633e+03	5.741082e+06	-1.214333e+05	-6.602730e+04	-5.540604e+04
9.700000e+01	-6.101404e+03	5.731067e+06	-1.090084e+05	-6.060561e+04	-4.840280e+04
9.750000e+01	-6.780794e+03	5.722775e+06	-8.938229e+04	-5.147194e+04	-3.791035e+04
9.800000e+01	-7.305356e+03	5.716690e+06	-6.526826e+04	-3.993949e+04	-2.532877e+04
9.850000e+01	-7.614114e+03	5.713316e+06	-3.722518e+04	-2.622670e+04	-1.099847e+04
9.900000e+01	-7.639731e+03	5.711980e+06	-4.976087e+03	-1.012777e+04	5.151688e+03
9.950000e+01	-7.334544e+03	5.711819e+06	2.820250e+04	6.766705e+03	2.143579e+04
1.000000e+02	-6.689641e+03	5.712206e+06	6.209042e+04	2.435557e+04	3.773485e+04
1.005000e+02	-5.720816e+03	5.712691e+06	9.639587e+04	4.247712e+04	5.391875e+04
1.010000e+02	-4.458382e+03	5.712569e+06	1.285057e+05	5.979446e+04	6.871122e+04
1.015000e+02	-2.941502e+03	5.712564e+06	1.583499e+05	7.623345e+04	8.211646e+04
1.020000e+02	-1.213790e+03	5.712345e+06	1.843245e+05	9.094844e+04	9.337602e+04
1.025000e+02	6.788402e+02	5.712330e+06	2.058700e+05	1.036138e+05	1.022562e+05
1.030000e+02	2.672239e+03	5.712735e+06	2.220907e+05	1.137176e+05	1.083731e+05
1.035000e+02	4.684454e+03	5.712085e+06	2.320219e+05	1.206954e+05	1.113265e+05
1.040000e+02	6.633295e+03	5.713395e+06	2.344299e+05	1.238483e+05	1.105817e+05
1.045000e+02	8.476444e+03	5.714221e+06	2.292005e+05	1.230767e+05	1.061238e+05
1.050000e+02	1.016004e+04	5.715201e+06	2.171506e+05	1.187354e+05	9.841527e+04
1.055000e+02	1.163304e+04	5.715700e+06	1.977039e+05	1.104850e+05	8.721891e+04
1.060000e+02	1.284705e+04	5.716443e+06	1.703544e+05	9.802425e+04	7.233016e+04
1.065000e+02	1.374998e+04	5.716996e+06	1.366785e+05	8.208923e+04	5.458928e+04
1.070000e+02	1.428385e+04	5.717848e+06	9.730069e+04	6.293420e+04	3.436650e+04
1.075000e+02	1.440687e+04	5.717883e+06	5.223367e+04	4.052371e+04	1.170996e+04
1.080000e+02	1.410650e+04	5.718404e+06	5.109049e+03	1.666103e+04	-1.155198e+04
1.085000e+02	1.335630e+04	5.719480e+06	-4.438692e+04	-8.837158e+03	-3.554976e+04
1.090000e+02	1.217158e+04	5.720244e+06	-9.530696e+04	-3.548190e+04	-5.982506e+04
1.095000e+02	1.056247e+04	5.721495e+06	-1.453203e+05	-6.209769e+04	-8.322263e+04
1.100000e+02	8.549324e+03	5.722417e+06	-1.929608e+05	-8.793105e+04	-1.050297e+05
1.105000e+02	6.170707e+03	5.723636e+06	-2.363899e+05	-1.120242e+05	-1.243657e+05
1.110000e+02	3.491432e+03	5.725263e+06	-2.744271e+05	-1.337221e+05	-1.407050e+05
1.115000e+02	5.903593e+02	5.726765e+06	-3.058448e+05	-1.523320e+05	-1.535128e+05
1.120000e+02	-2.439962e+03	5.728567e+06	-3.282707e+05	-1.665753e+05	-1.616954e+05
1.125000e+02	-5.502851e+03	5.730025e+06	-3.419644e+05	-1.764851e+05	-1.654793e+05
1.130000e+02	-8.499728e+03	5.732069e+06	-3.461783e+05	-1.815889e+05	-1.645894e+05
1.135000e+02	-1.133721e+04	5.733849e+06	-3.385529e+05	-1.806137e+05	-1.579393e+05
1.140000e+02	-1.392518e+04	5.736044e+06	-3.208331e+05	-1.743418e+05	-1.464914e+05
1.145000e+02	-1.617542e+04	5.738081e+06	-2.925700e+05	-1.624604e+05	-1.301096e+05
1.150000e+02	-1.801125e+04	5.740287e+06	-2.530016e+05	-1.445121e+05	-1.084896e+05
1.155000e+02	-1.935879e+04	5.742246e+06	-2.044002e+05	-1.215589e+05	-8.284132e+04
1.160000e+02	-2.014969e+04	5.744366e+06	-1.475948e+05	-9.394710e+04	-5.364771e+04
1.165000e+02	-2.032403e+04	5.746657e+06	-8.380601e+04	-6.222704e+04	-2.157897e+04
1.170000e+02	-1.984570e+04	5.748955e+06	-1.334543e+04	-2.651842e+04	1.317299e+04
1.175000e+02	-1.870229e+04	5.751518e+06	6.028200e+04	1.143870e+04	4.884329e+04
1.180000e+02	-1.690483e+04	5.753795e+06	1.340268e+05	5.010855e+04	8.391821e+04
1.185000e+02	-1.448525e+04	5.756519e+06	2.065998e+05	8.881467e+04	1.177852e+05
1.190000e+02	-1.148547e+04	5.759693e+06	2.761384e+05	1.265837e+05	1.495547e+05
1.195000e+02	-7.980753e+03	5.763052e+06	3.423778e+05	1.632082e+05	1.791697e+05
1.200000e+02	-4.070211e+03	5.766887e+06	3.961308e+05	1.939952e+05	2.021356e+05
1.205000e+02	1.363411e+02	5.770791e+06	4.433820e+05	2.218273e+05	2.215546e+05
1.210000e+02	4.523300e+03	5.775043e+06	4.774371e+05	2.432418e+05	2.341952e+05
1.215000e+02	8.963252e+03	5.779731e+06	4.978849e+05	2.579057e+05	2.399792e+05
1.220000e+02	1.332067e+04	5.784675e+06	5.043106e+05	2.654760e+05	2.388346e+05
1.225000e+02	1.745435e+04	5.789553e+06	4.925547e+05	2.637317e+05	2.288230e+05
1.230000e+02	2.122232e+04	5.794464e+06	4.668885e+05	2.546666e+05	2.122219e+05
1.235000e+02	2.448680e+04	5.799562e+06	4.241468e+05	2.365602e+05	1.875866e+05
1.240000e+02	2.712349e+04	5.804194e+06	3.673179e+05	2.107824e+05	1.565355e+05
1.245000e+02	2.902026e+04	5.808957e+06	2.932819e+05	1.756612e+05	1.176207e+05
1.250000e+02	3.008597e+04	5.814263e+06	2.110599e+05	1.356159e+05	7.544397e+04
1.255000e+02	3.024963e+04	5.819392e+06	1.152750e+05	8.788713e+04	2.738787e+04
1.260000e+02	2.946511e+04	5.824186e+06	1.130259e+04	3.511640e+04	-2.381381e+04
1.265000e+02	2.771279e+04	5.829434e+06	-9.433062e+04	-1.945252e+04	-7.487811e+04
1.270000e+02	2.500024e+04	5.835415e+06	-2.038782e+05	-7.693887e+04	-1.269393e+05
1.275000e+02	2.137642e+04	5.841417e+06	-3.117093e+05	-1.344782e+05	-1.772311e+05
1.280000e+02	1.691804e+04	5.848323e+06	-4.130981e+05	-1.896310e+05	-2.234671e+05
1.285000e+02	1.173228e+04	5.855800e+06	-5.079761e+05	-2.422558e+05	-2.657203e+05
1.290000e+02	5.959537e+03	5.863682e+06	-5.896805e+05	-2.888807e+05	-3.007998e+05
1.295000e+02	-2.434590e+02	5.872379e+06	-6.539591e+05	-3.272230e+05	-3.267361e+05
1.300000e+02	-6.693353e+03	5.881473e+06	-7.015907e+05	-3.574887e+05	-3.441020e+05
1.305000e+02	-1.319698e+04	5.891115e+06	-7.282973e+05	-3.773456e+05	-3.509517e+05
1.310000e+02	-1.954459e+04	5.901132e+06	-7.316226e+05	-3.853559e+05	-3.462667e+05
1.315000e+02	-2.551936e+04	5.911586e+06	-7.119582e+05	-3.814984e+05	-3.304597e+05
1.320000e+02	-3.090673e+04	5.921604e+06	-6.705607e+05	-3.661871e+05	-3.043736e+05
1.325000e+02	-3.550596e+04	5.931304e+06	-6.015473e+05	-3.362796e+05	-2.652677e+05
1.330000e+02	-3.913608e+04	5.941078e+06	-5.108826e+05	-2.945774e+05	-2.163052e+05
1.335000e+02	-4.163549e+04	5.950175e+06	-4.000268e+05	-2.416489e+05	-1.583779e+05
1.340000e+02	-4.287548e+04	5.959554e+06	-2.720785e+05	-1.789147e+05	-9.316376e+04
1.345000e+02	-4.275235e+04	5.968551e+06	-1.273186e+05	-1.064117e+05	-2.090697e+04
1.350000e+02	-4.120253e+04	5.978757e+06	2.583857e+04	-2.828325e+04	5.412182e+04
1.355000e+02	-3.820901e+04	5.988901e+06	1.852010e+05	5.439150e+04	1.308095e+05
1.360000e+02	-3.380580e+04	5.999577e+06	3.429823e+05	1.376854e+05	2.052970e+05
1.365000e+02	-2.808010e+04	6.011749e+06	4.995774e+05	2.217086e+05	2.778688e+05
1.370000e+02	-2.117533e+04	6.024913e+06	6.472694e+05	3.024594e+05	3.448100e+05
1.375000e+02	-1.327359e+04	6.039198e+06	7.767610e+05	3.751069e+05	4.016541e+05
1.380000e+02	-4.590916e+03	6.054949e+06	8.863864e+05	4.386023e+05	4.477841e+05
1.385000e+02	4.598791e+03	6.071268e+06	9.707226e+05	4.899601e+05	4.807625e+05
1.390000e+02	1.400002e+04	6.088456e+06	1.021027e+06	5.245134e+05	4.965133e+05
1.395000e+02	2.330752e+04	6.106156e+06	1.041074e+06	5.438447e+05	4.972297e+05
1.400000e+02	3.219938e+04	6.123505e+06	1.029496e+06	5.469473e+05	4.825485e+05
1.405000e+02	4.035860e+04	6.140460e+06	9.806304e+05	5.306738e+05	4.499566e+05
1.410000e+02	4.747693e+04	6.156991e+06	8.952127e+05	4.950833e+05	4.001294e+05
1.415000e+02	5.327587e+04	6.172179e+06	7.750611e+05	4.408064e+05	3.342547e+05
1.420000e+02	5.750414e+04	6.185741e+06	6.236267e+05	3.693175e+05	2.543092e+05
1.425000e+02	5.994052e+04	6.199704e+06	4.449390e+05	2.824100e+05	1.625290e+05
1.430000e+02	6.041060e+04	6.212696e+06	2.395240e+05	1.801726e+05	5.935142e+04
1.435000e+02	5.881339e+04	6.226757e+06	2.155008e+04	6.958843e+04	-4.803836e+04
1.440000e+02	5.510706e+04	6.240347e+06	-2.049829e+05	-4.738441e+04	-1.575985e+05
1.445000e+02	4.934682e+04	6.255234e+06	-4.354984e+05	-1.684024e+05	-2.670960e+05
1.450000e+02	4.163010e+04	6.271766e+06	-6.603641e+05	-2.885519e+05	-3.718121e+05
1.455000e+02	3.214622e+04	6.289887e+06	-8.662983e+05	-4.010029e+05	-4.652954e+05
1.460000e+02	2.115901e+04	6.309836e+06	-1.051870e+06	-5.047759e+05	-5.470939e+05
1.465000e+02	9.002308e+03	6.332553e+06	-1.210178e+06	-5.960866e+05	-6.140912e+05
1.470000e+02	-3.939342e+03	6.355670e+06	-1.329550e+06	-6.687146e+05	-6.608359e+05
1.475000e+02	-1.721819e+04	6.380291e+06	-1.403022e+06	-7.187292e+05	-6.842929e+05
1.480000e+02	-3.029701e+04	6.404281e+06	-1.429063e+06	-7.448286e+05	-6.842346e+05
1.485000e+02	-4.269997e+04	6.427360e+06	-1.410564e+06	-7.479819e+05	-6.625820e+05
1.490000e+02	-5.402624e+04	6.450739e+06	-1.330602e+06	-7.193273e+05	-6.112748e+05
1.495000e+02	-6.391150e+04	6.470208e+06	-1.203497e+06	-6.656601e+05	-5.378372e+05
1.500000e+02	-7.195254e+04	6.487354e+06	-1.028490e+06	-5.861976e+05	-4.422925e+05
1.505000e+02	-7.767596e+04	6.503760e+06	-8.125750e+05	-4.839635e+05	-3.286115e+05
1.510000e+02	-8.077348e+04	6.518240e+06	-5.576795e+05	-3.596132e+05	-1.980663e+05
1.515000e+02	-8.105214e+04	6.530097e+06	-2.713161e+05	-2.167102e+05	-5.460592e+04
1.520000e+02	-7.838703e+04	6.542960e+06	3.501556e+04	-6.087925e+04	9.589481e+04
1.525000e+02	-7.275710e+04	6.556795e+06	3.504008e+05	1.024433e+05	2.479575e+05
1.530000e+02	-6.422492e+04	6.572745e+06	6.629576e+05	2.672539e+05	3.957037e+05
1.535000e+02	-5.307389e+04	6.591231e+06	9.648790e+05	4.293656e+05	5.355134e+05
1.540000e+02	-3.995295e+04	6.611752e+06	1.236153e+06	5.781236e+05	6.580294e+05
1.545000e+02	-2.538077e+04	6.633220e+06	1.472845e+06	7.110418e+05	7.618033e+05
1.550000e+02	-9.890827e+03	6.656176e+06	1.660264e+06	8.202412e+05	8.400228e+05
1.555000e+02	5.931965e+03	6.676075e+06	1.791502e+06	9.016829e+05	8.898190e+05
1.560000e+02	2.146631e+04	6.692778e+06	1.865119e+06	9.540259e+05	9.110932e+05
1.565000e+02	3.605153e+04	6.705708e+06	1.871349e+06	9.717262e+05	8.996231e+05
1.570000e+02	4.905319e+04	6.712600e+06	1.813400e+06	9.557532e+05	8.576469e+05
1.575000e+02	5.990165e+04	6.714239e+06	1.693789e+06	9.067963e+05	7.869930e+05
1.580000e+02	6.814573e+04	6.713083e+06	1.512415e+06	8.243534e+05	6.880619e+05
1.585000e+02	7.351004e+04	6.707774e+06	1.277506e+06	7.122631e+05	5.652430e+05
1.590000e+02	7.578868e+04	6.701621e+06	9.941640e+05	5.728707e+05	4.212933e+05
1.595000e+02	7.485716e+04	6.699452e+06	6.794031e+05	4.145587e+05	2.648444e+05
1.600000e+02	7.066919e+04	6.700134e+06	3.313364e+05	2.363374e+05	9.499899e+04
1.605000e+02	6.331534e+04	6.708111e+06	-2.819568e+04	4.921750e+04	-7.741318e+04
1.610000e+02	5.339612e+04	6.722929e+06	-3.895182e+05	-1.413630e+05	-2.481552e+05
1.615000e+02	4.146173e+04	6.747035e+06	-7.367962e+05	-3.269364e+05	-4.098598e+05
1.620000e+02	2.806999e+04	6.776559e+06	-1.058963e+06	-5.014117e+05	-5.575517e+05
1.625000e+02	1.378813e+04	6.811666e+06	-1.333176e+06	-6.528000e+05	-6.803763e+05
1.630000e+02	-7.709984e+02	6.850087e+06	-1.565670e+06	-7.836062e+05	-7.820642e+05
1.635000e+02	-1.493529e+04	6.886610e+06	-1.739981e+06	-8.849257e+05	-8.550552e+05
1.640000e+02	-2.819310e+04	6.918811e+06	-1.846773e+06	-9.515798e+05	-8.951936e+05
1.645000e+02	-4.072321e+04	6.941637e+06	-1.885496e+06	-9.834710e+05	-9.020246e+05
1.650000e+02	-5.189780e+04	6.955105e+06	-1.858031e+06	-9.809134e+05	-8.771178e+05
1.655000e+02	-6.077336e+04	6.959983e+06	-1.765731e+06	-9.436391e+05	-8.220924e+05
1.660000e+02	-6.652693e+04	6.956429e+06	-1.596257e+06	-8.646553e+05	-7.316014e+05
1.665000e+02	-6.893064e+04	6.944276e+06	-1.367861e+06	-7.528610e+05	-6.149997e+05
1.670000e+02	-6.802696e+04	6.926356e+06	-1.088405e+06	-6.122293e+05	-4.761754e+05
1.675000e+02	-6.379298e+04	6.909255e+06	-7.624829e+05	-4.450344e+05	-3.174485e+05
1.680000e+02	-5.643919e+04	6.894902e+06	-3.817165e+05	-2.472974e+05	-1.344190e+05
1.685000e+02	-4.645094e+04	6.889234e+06	-9.746232e+03	-5.132405e+04	4.157782e+04
1.690000e+02	-3.414032e+04	6.889271e+06	3.692922e+05	1.505058e+05	2.187864e+05
1.695000e+02	-1.953516e+04	6.898826e+06	7.297859e+05	3.453578e+05	3.844281e+05
1.700000e+02	-3.119362e+03	6.916084e+06	1.055849e+06	5.248049e+05	5.310436e+05
1.705000e+02	1.440454e+04	6.940963e+06	1.340864e+06	6.848364e+05	6.560273e+05
1.710000e+02	3.230669e+04	6.971797e+06	1.555712e+06	8.101628e+05	7.455495e+05
1.715000e+02	4.980104e+04	7.002248e+06	1.712087e+06	9.058444e+05	8.062424e+05
1.720000e+02	6.554767e+04	7.020506e+06	1.794402e+06	9.627485e+05	8.316531e+05
1.725000e+02	7.833486e+04	7.034946e+06	1.785953e+06	9.713115e+05	8.146418e+05
1.730000e+02	8.780323e+04	7.040528e+06	1.707170e+06	9.413880e+05	7.657815e+05
1.735000e+02	9.379034e+04	7.036852e+06	1.542625e+06	8.651030e+05	6.775223e+05
1.740000e+02	9.614636e+04	7.018822e+06	1.312093e+06	7.521927e+05	5.598999e+05
1.745000e+02	9.470471e+04	6.998622e+06	1.012439e+06	6.009242e+05	4.115148e+05
1.750000e+02	8.942517e+04	6.976749e+06	6.592646e+05	4.190575e+05	2.402071e+05
1.755000e+02	8.005016e+04	6.953579e+06	2.667839e+05	2.134421e+05	5.334177e+04
1.760000e+02	6.664781e+04	6.934201e+06	-1.415036e+05	-4.103996e+03	-1.373996e+05
1.765000e+02	4.955505e+04	6.923255e+06	-5.493237e+05	-2.251068e+05	-3.242169e+05
1.770000e+02	2.951293e+04	6.921239e+06	-9.600597e+05	-4.505169e+05	-5.095428e+05
1.775000e+02	7.706791e+03	6.930180e+06	-1.324548e+06	-6.545674e+05	-6.699810e+05
1.780000e+02	-1.448046e+04	6.949751e+06	-1.646593e+06	-8.377768e+05	-8.088158e+05
1.785000e+02	-3.615954e+04	6.979795e+06	-1.901962e+06	-9.871405e+05	-9.148214e+05
1.790000e+02	-5.649759e+04	7.004648e+06	-2.092909e+06	-1.102952e+06	-9.899571e+05
1.795000e+02	-7.539215e+04	7.026736e+06	-2.193131e+06	-1.171958e+06	-1.021173e+06
1.800000e+02	-9.200792e+04	7.047636e+06	-2.189574e+06	-1.186795e+06	-1.002779e+06
1.805000e+02	-1.057944e+05	7.060008e+06	-2.104229e+06	-1.157909e+06	-9.463199e+05
1.810000e+02	-1.161610e+05	7.062153e+06	-1.911781e+06	-1.072051e+06	-8.397294e+05
1.815000e+02	-1.223538e+05	7.058648e+06	-1.639893e+06	-9.423002e+05	-6.975925e+05
1.820000e+02	-1.235857e+05	7.053904e+06	-1.293308e+06	-7.702398e+05	-5.230684e+05
1.825000e+02	-1.195619e+05	7.046990e+06	-8.660664e+05	-5.525951e+05	-3.134714e+05
1.830000e+02	-1.100558e+05	7.044231e+06	-3.941729e+05	-3.071423e+05	-8.703062e+04
1.835000e+02	-9.563679e+04	7.046099e+06	1.205701e+05	-3.535175e+04	1.559218e+05
1.840000e+02	-7.721880e+04	7.052532e+06	6.257384e+05	2.356504e+05	3.900880e+05
1.845000e+02	-5.529698e+04	7.066440e+06	1.128355e+06	5.088806e+05	6.194746e+05
1.850000e+02	-3.044560e+04	7.083446e+06	1.610705e+06	7.749071e+05	8.357983e+05
1.855000e+02	-3.164537e+03	7.101182e+06	2.030469e+06	1.012070e+06	1.018399e+06
1.860000e+02	2.581264e+04	7.123619e+06	2.373950e+06	1.212788e+06	1.161162e+06
1.865000e+02	5.544877e+04	7.147820e+06	2.618502e+06	1.364700e+06	1.253802e+06
1.870000e+02	8.428956e+04	7.169442e+06	2.763385e+06	1.465982e+06	1.297403e+06
1.875000e+02	1.107264e+05	7.196708e+06	2.778239e+06	1.499846e+06	1.278393e+06
1.880000e+02	1.334551e+05	7.218843e+06	2.710734e+06	1.488822e+06	1.221912e+06
1.885000e+02	1.518442e+05	7.233524e+06	2.487092e+06	1.395390e+06	1.091702e+06
1.890000e+02	1.651432e+05	7.250126e+06	2.167145e+06	1.248716e+06	9.184293e+05
1.895000e+02	1.726716e+05	7.253210e+06	1.728023e+06	1.036683e+06	6.913399e+05
1.900000e+02	1.741231e+05	7.249564e+06	1.203832e+06	7.760390e+05	4.277928e+05
1.905000e+02	1.689839e+05	7.235114e+06	6.154786e+05	4.767232e+05	1.387554e+05
1.910000e+02	1.569474e+05	7.218461e+06	-1.089447e+04	1.515001e+05	-1.623946e+05
1.915000e+02	1.380544e+05	7.196759e+06	-6.639471e+05	-1.939191e+05	-4.700279e+05
1.920000e+02	1.128084e+05	7.179739e+06	-1.306208e+06	-5.402958e+05	-7.659127e+05
1.925000e+02	8.145439e+04	7.173572e+06	-1.919808e+06	-8.784494e+05	-1.041358e+06
1.930000e+02	4.476907e+04	7.186151e+06	-2.466474e+06	-1.188468e+06	-1.278006e+06
1.935000e+02	4.475008e+03	7.208986e+06	-2.915805e+06	-1.453428e+06	-1.462378e+06
1.940000e+02	-3.735859e+04	7.247854e+06	-3.283029e+06	-1.678873e+06	-1.604156e+06
1.945000e+02	-7.861072e+04	7.301532e+06	-3.511722e+06	-1.834472e+06	-1.677250e+06
1.950000e+02	-1.175810e+05	7.361376e+06	-3.612088e+06	-1.923625e+06	-1.688463e+06
1.955000e+02	-1.531899e+05	7.420061e+06	-3.554666e+06	-1.930523e+06	-1.624143e+06
1.960000e+02	-1.842736e+05	7.470807e+06	-3.354217e+06	-1.861382e+06	-1.492835e+06
1.965000e+02	-2.093145e+05	7.499325e+06	-3.008132e+06	-1.713381e+06	-1.294752e+06
1.970000e+02	-2.268574e+05	7.513177e+06	-2.526927e+06	-1.490321e+06	-1.036606e+06
1.975000e+02	-2.357316e+05	7.504560e+06	-1.933332e+06	-1.202398e+06	-7.309345e+05
1.980000e+02	-2.352135e+05	7.484803e+06	-1.244204e+06	-8.573154e+05	-3.868884e+05
1.985000e+02	-2.250117e+05	7.455672e+06	-4.934746e+05	-4.717491e+05	-2.172557e+04
1.990000e+02	-2.053092e+05	7.423135e+06	2.873926e+05	-6.161288e+04	3.490055e+05
1.995000e+02	-1.769355e+05	7.398413e+06	1.088467e+06	3.672979e+05	7.211689e+05
2.000000e+02	-1.403905e+05	7.389424e+06	1.860398e+06	7.898086e+05	1.070590e+06
2.005000e+02	-9.635221e+04	7.411137e+06	2.569749e+06	1.188522e+06	1.381226e+06
2.010000e+02	-4.627724e+04	7.445846e+06	3.195669e+06	1.551557e+06	1.644112e+06
2.015000e+02	7.727112e+03	7.503087e+06	3.726232e+06	1.870843e+06	1.855389e+06
2.020000e+02	6.293106e+04	7.578177e+06	4.111068e+06	2.118465e+06	1.992603e+06
2.025000e+02	1.168899e+05	7.668381e+06	4.328797e+06	2.281288e+06	2.047509e+06