# Forces     
# CofR       : (0.000000e+00 0.000000e+00 0.000000e+00)
# Time       forces(pressure viscous porous) moment(pressure viscous porous)
5.061000e+02	((6.341846e+05 -3.947133e+05 -1.558766e-13) (4.203288e+02 4.141180e+02 1.547408e-17) (0.000000e+00 0.000000e+00 0.000000e+00)) ((1.973566e+07 3.170923e+07 -1.167320e+02) (-2.070590e+04 2.101644e+04 3.765308e+04) (0.000000e+00 0.000000e+00 0.000000e+00))
5.062000e+02	((6.358876e+05 -4.006890e+05 -1.559980e-13) (4.204541e+02 4.049735e+02 1.524751e-17) (0.000000e+00 0.000000e+00 0.000000e+00)) ((2.003445e+07 3.179438e+07 -1.158325e+02) (-2.024868e+04 2.102271e+04 3.686576e+04) (0.000000e+00 0.000000e+00 0.000000e+00))
5.063000e+02	((6.370928e+05 -4.089502e+05 -1.560472e-13) (4.206220e+02 3.957533e+02 1.503076e-17) (0.000000e+00 0.000000e+00 0.000000e+00)) ((2.044751e+07 3.185464e+07 -1.155103e+02) (-1.978767e+04 2.103110e+04 3.607288e+04) (0.000000e+00 0.000000e+00 0.000000e+00))
5.064000e+02	((6.379390e+05 -4.165647e+05 -1.564449e-13) (4.208261e+02 3.864848e+02 1.481700e-17) (0.000000e+00 0.000000e+00 0.000000e+00)) ((2.082824e+07 3.189695e+07 -1.149252e+02) (-1.932424e+04 2.104131e+04 3.527573e+04) (0.000000e+00 0.000000e+00 0.000000e+00))
5.065000e+02	((6.394850e+05 -4.237730e+05 -1.567405e-13) (4.210489e+02 3.771625e+02 1.460569e-17) (0.000000e+00 0.000000e+00 0.000000e+00)) ((2.118865e+07 3.197425e+07 -1.143627e+02) (-1.885812e+04 2.105244e+04 3.447375e+04) (0.000000e+00 0.000000e+00 0.000000e+00))
5.066000e+02	((6.398338e+05 -4.332142e+05 -1.573225e-13) (4.213829e+02 3.677924e+02 1.439515e-17) (0.000000e+00 0.000000e+00 0.000000e+00)) ((2.166071e+07 3.199169e+07 -1.149138e+02) (-1.838962e+04 2.106915e+04 3.366612e+04) (0.000000e+00 0.000000e+00 0.000000e+00))
5.067000e+02	((6.396389e+05 -4.395076e+05 -1.574622e-13) (4.217801e+02 3.583669e+02 1.418268e-17) (0.000000e+00 0.000000e+00 0.000000e+00)) ((2.197538e+07 3.198194e+07 -1.135512e+02) (-1.791834e+04 2.108901e+04 3.285351e+04) (0.000000e+00 0.000000e+00 0.000000e+00))
5.068000e+02	((6.402291e+05 -4.489367e+05 -1.579109e-13) (4.222096e+02 3.489209e+02 1.397320e-17) (0.000000e+00 0.000000e+00 0.000000e+00)) ((2.244684e+07 3.201145e+07 -1.135113e+02) (-1.744605e+04 2.111048e+04 3.203888e+04) (0.000000e+00 0.000000e+00 0.000000e+00))
5.069000e+02	((6.414730e+05 -4.565207e+05 -1.582069e-13) (4.226909e+02 3.394315e+02 1.376266e-17) (0.000000e+00 0.000000e+00 0.000000e+00)) ((2.282603e+07 3.207365e+07 -1.132423e+02) (-1.697158e+04 2.113455e+04 3.122028e+04) (0.000000e+00 0.000000e+00 0.000000e+00))
5.070000e+02	((6.425486e+05 -4.635357e+05 -1.583971e-13) (4.232212e+02 3.299055e+02 1.355192e-17) (0.000000e+00 0.000000e+00 0.000000e+00)) ((2.317679e+07 3.212743e+07 -1.122225e+02) (-1.649527e+04 2.116106e+04 3.039820e+04) (0.000000e+00 0.000000e+00 0.000000e+00))
5.071000e+02	((6.434713e+05 -4.711089e+05 -1.586390e-13) (4.237921e+02 3.203257e+02 1.334244e-17) (0.000000e+00 0.000000e+00 0.000000e+00)) ((2.355544e+07 3.217356e+07 -1.112881e+02) (-1.601629e+04 2.118960e+04 2.957215e+04) (0.000000e+00 0.000000e+00 0.000000e+00))
5.072000e+02	((6.452642e+05 -4.789197e+05 -1.589266e-13) (4.244288e+02 3.106937e+02 1.313046e-17) (0.000000e+00 0.000000e+00 0.000000e+00)) ((2.394598e+07 3.226321e+07 -1.108741e+02) (-1.553468e+04 2.122144e+04 2.874219e+04) (0.000000e+00 0.000000e+00 0.000000e+00))
5.073000e+02	((6.479919e+05 -4.861961e+05 -1.592169e-13) (4.251572e+02 3.010186e+02 1.292312e-17) (0.000000e+00 0.000000e+00 0.000000e+00)) ((2.430980e+07 3.239959e+07 -1.107736e+02) (-1.505093e+04 2.125786e+04 2.790889e+04) (0.000000e+00 0.000000e+00 0.000000e+00))
5.074000e+02	((6.484774e+05 -4.937294e+05 -1.594393e-13) (4.259220e+02 2.912966e+02 1.271141e-17) (0.000000e+00 0.000000e+00 0.000000e+00)) ((2.468647e+07 3.242387e+07 -1.099035e+02) (-1.456483e+04 2.129610e+04 2.707107e+04) (0.000000e+00 0.000000e+00 0.000000e+00))
5.075000e+02	((6.495050e+05 -5.013976e+05 -1.598319e-13) (4.267408e+02 2.815504e+02 1.250143e-17) (0.000000e+00 0.000000e+00 0.000000e+00)) ((2.506988e+07 3.247525e+07 -1.099820e+02) (-1.407752e+04 2.133704e+04 2.623053e+04) (0.000000e+00 0.000000e+00 0.000000e+00))
5.076000e+02	((6.504906e+05 -5.084608e+05 -1.600038e-13) (4.276115e+02 2.717818e+02 1.228952e-17) (0.000000e+00 0.000000e+00 0.000000e+00)) ((2.542304e+07 3.252453e+07 -1.087525e+02) (-1.358909e+04 2.138057e+04 2.538738e+04) (0.000000e+00 0.000000e+00 0.000000e+00))
5.077000e+02	((6.516304e+05 -5.160991e+05 -1.602425e-13) (4.285361e+02 2.619948e+02 1.207522e-17) (0.000000e+00 0.000000e+00 0.000000e+00)) ((2.580495e+07 3.258152e+07 -1.082010e+02) (-1.309974e+04 2.142681e+04 2.454237e+04) (0.000000e+00 0.000000e+00 0.000000e+00))
5.078000e+02	((6.520263e+05 -5.232271e+05 -1.605555e-13) (4.294972e+02 2.521944e+02 1.185935e-17) (0.000000e+00 0.000000e+00 0.000000e+00)) ((2.616136e+07 3.260131e+07 -1.078935e+02) (-1.260972e+04 2.147486e+04 2.369567e+04) (0.000000e+00 0.000000e+00 0.000000e+00))
5.079000e+02	((6.532013e+05 -5.290463e+05 -1.605246e-13) (4.305111e+02 2.423907e+02 1.164643e-17) (0.000000e+00 0.000000e+00 0.000000e+00)) ((2.645231e+07 3.266006e+07 -1.066635e+02) (-1.211954e+04 2.152556e+04 2.284815e+04) (0.000000e+00 0.000000e+00 0.000000e+00))
5.080000e+02	((6.543533e+05 -5.359233e+05 -1.607299e-13) (4.315715e+02 2.325844e+02 1.144104e-17) (0.000000e+00 0.000000e+00 0.000000e+00)) ((2.679617e+07 3.271767e+07 -1.063550e+02) (-1.162922e+04 2.157858e+04 2.199969e+04) (0.000000e+00 0.000000e+00 0.000000e+00))
5.081000e+02	((6.548207e+05 -5.441963e+05 -1.610727e-13) (4.326700e+02 2.227540e+02 1.123727e-17) (0.000000e+00 0.000000e+00 0.000000e+00)) ((2.720981e+07 3.274104e+07 -1.062926e+02) (-1.113770e+04 2.163350e+04 2.114873e+04) (0.000000e+00 0.000000e+00 0.000000e+00))
5.082000e+02	((6.549802e+05 -5.509879e+05 -1.612274e-13) (4.338081e+02 2.128963e+02 1.103435e-17) (0.000000e+00 0.000000e+00 0.000000e+00)) ((2.754939e+07 3.274901e+07 -1.058125e+02) (-1.064482e+04 2.169040e+04 2.029526e+04) (0.000000e+00 0.000000e+00 0.000000e+00))
5.083000e+02	((6.570160e+05 -5.581396e+05 -1.614131e-13) (4.350001e+02 2.030173e+02 1.083483e-17) (0.000000e+00 0.000000e+00 0.000000e+00)) ((2.790698e+07 3.285080e+07 -1.054844e+02) (-1.015086e+04 2.175000e+04 1.944049e+04) (0.000000e+00 0.000000e+00 0.000000e+00))
5.084000e+02	((6.577371e+05 -5.648329e+05 -1.615536e-13) (4.362433e+02 1.931178e+02 1.063835e-17) (0.000000e+00 0.000000e+00 0.000000e+00)) ((2.824165e+07 3.288685e+07 -1.051783e+02) (-9.655891e+03 2.181216e+04 1.858432e+04) (0.000000e+00 0.000000e+00 0.000000e+00))
5.085000e+02	((6.580310e+05 -5.714388e+05 -1.616639e-13) (4.375263e+02 1.832107e+02 1.044568e-17) (0.000000e+00 0.000000e+00 0.000000e+00)) ((2.857194e+07 3.290155e+07 -1.047534e+02) (-9.160537e+03 2.187631e+04 1.772768e+04) (0.000000e+00 0.000000e+00 0.000000e+00))
5.086000e+02	((6.589726e+05 -5.780998e+05 -1.617939e-13) (4.388418e+02 1.732838e+02 1.025748e-17) (0.000000e+00 0.000000e+00 0.000000e+00)) ((2.890499e+07 3.294863e+07 -1.044893e+02) (-8.664191e+03 2.194209e+04 1.686973e+04) (0.000000e+00 0.000000e+00 0.000000e+00))
5.087000e+02	((6.601460e+05 -5.848276e+05 -1.619162e-13) (4.401987e+02 1.633422e+02 1.007474e-17) (0.000000e+00 0.000000e+00 0.000000e+00)) ((2.924138e+07 3.300730e+07 -1.040727e+02) (-8.167110e+03 2.200994e+04 1.601091e+04) (0.000000e+00 0.000000e+00 0.000000e+00))
5.088000e+02	((6.602321e+05 -5.896998e+05 -1.620126e-13) (4.415968e+02 1.533837e+02 9.897781e-18) (0.000000e+00 0.000000e+00 0.000000e+00)) ((2.948499e+07 3.301160e+07 -1.038531e+02) (-7.669183e+03 2.207984e+04 1.515100e+04) (0.000000e+00 0.000000e+00 0.000000e+00))
5.089000e+02	((6.618970e+05 -5.976779e+05 -1.621793e-13) (4.430882e+02 1.434400e+02 9.725851e-18) (0.000000e+00 0.000000e+00 0.000000e+00)) ((2.988390e+07 3.309485e+07 -1.033808e+02) (-7.172000e+03 2.215441e+04 1.429147e+04) (0.000000e+00 0.000000e+00 0.000000e+00))
5.090000e+02	((6.628027e+05 -6.032522e+05 -1.622078e-13) (4.446244e+02 1.334855e+02 9.562319e-18) (0.000000e+00 0.000000e+00 0.000000e+00)) ((3.016261e+07 3.314014e+07 -1.027568e+02) (-6.674273e+03 2.223122e+04 1.343134e+04) (0.000000e+00 0.000000e+00 0.000000e+00))
5.091000e+02	((6.638267e+05 -6.099014e+05 -1.623027e-13) (4.462013e+02 1.235358e+02 9.408083e-18) (0.000000e+00 0.000000e+00 0.000000e+00)) ((3.049507e+07 3.319134e+07 -1.023106e+02) (-6.176790e+03 2.231006e+04 1.257191e+04) (0.000000e+00 0.000000e+00 0.000000e+00))
5.092000e+02	((6.650241e+05 -6.160596e+05 -1.623436e-13) (4.478213e+02 1.135777e+02 9.261556e-18) (0.000000e+00 0.000000e+00 0.000000e+00)) ((3.080298e+07 3.325120e+07 -1.017965e+02) (-5.678886e+03 2.239106e+04 1.171205e+04) (0.000000e+00 0.000000e+00 0.000000e+00))
5.093000e+02	((6.657239e+05 -6.223346e+05 -1.624097e-13) (4.494825e+02 1.036199e+02 9.123102e-18) (0.000000e+00 0.000000e+00 0.000000e+00)) ((3.111673e+07 3.328619e+07 -1.013418e+02) (-5.180994e+03 2.247413e+04 1.085255e+04) (0.000000e+00 0.000000e+00 0.000000e+00))
5.094000e+02	((6.667820e+05 -6.294164e+05 -1.625980e-13) (4.511814e+02 9.364925e+01 8.992980e-18) (0.000000e+00 0.000000e+00 0.000000e+00)) ((3.147082e+07 3.333910e+07 -1.017023e+02) (-4.682462e+03 2.255907e+04 9.992455e+03) (0.000000e+00 0.000000e+00 0.000000e+00))
5.095000e+02	((6.668144e+05 -6.364237e+05 -1.625374e-13) (4.529171e+02 8.370943e+01 8.870171e-18) (0.000000e+00 0.000000e+00 0.000000e+00)) ((3.182119e+07 3.334072e+07 -9.968894e+01) (-4.185471e+03 2.264586e+04 9.135200e+03) (0.000000e+00 0.000000e+00 0.000000e+00))
5.096000e+02	((6.691787e+05 -6.410150e+05 -1.625085e-13) (4.546857e+02 7.375620e+01 8.758447e-18) (0.000000e+00 0.000000e+00 0.000000e+00)) ((3.205075e+07 3.345893e+07 -9.955276e+01) (-3.687810e+03 2.273429e+04 8.276549e+03) (0.000000e+00 0.000000e+00 0.000000e+00))
5.097000e+02	((6.696272e+05 -6.459213e+05 -1.623735e-13) (4.565344e+02 6.378950e+01 8.648846e-18) (0.000000e+00 0.000000e+00 0.000000e+00)) ((3.229606e+07 3.348136e+07 -9.814017e+01) (-3.189475e+03 2.282672e+04 7.418033e+03) (0.000000e+00 0.000000e+00 0.000000e+00))
5.098000e+02	((6.713274e+05 -6.522554e+05 -1.624510e-13) (4.584453e+02 5.381696e+01 8.549724e-18) (0.000000e+00 0.000000e+00 0.000000e+00)) ((3.261277e+07 3.356637e+07 -9.794494e+01) (-2.690848e+03 2.292227e+04 6.560560e+03) (0.000000e+00 0.000000e+00 0.000000e+00))
5.099000e+02	((6.727211e+05 -6.578267e+05 -1.624938e-13) (4.603999e+02 4.382988e+01 8.460165e-18) (0.000000e+00 0.000000e+00 0.000000e+00)) ((3.289133e+07 3.363606e+07 -9.745709e+01) (-2.191494e+03 2.301999e+04 5.702581e+03) (0.000000e+00 0.000000e+00 0.000000e+00))
5.100000e+02	((6.736635e+05 -6.634713e+05 -1.624289e-13) (4.623312e+02 3.386273e+01 8.369815e-18) (0.000000e+00 0.000000e+00 0.000000e+00)) ((3.317356e+07 3.368318e+07 -9.662938e+01) (-1.693137e+03 2.311656e+04 4.845621e+03) (0.000000e+00 0.000000e+00 0.000000e+00))
5.101000e+02	((6.748343e+05 -6.682574e+05 -1.623275e-13) (4.642993e+02 2.389802e+01 8.285675e-18) (0.000000e+00 0.000000e+00 0.000000e+00)) ((3.341287e+07 3.374172e+07 -9.543630e+01) (-1.194901e+03 2.321497e+04 3.989887e+03) (0.000000e+00 0.000000e+00 0.000000e+00))
5.102000e+02	((6.757374e+05 -6.738172e+05 -1.623067e-13) (4.663015e+02 1.393745e+01 8.206189e-18) (0.000000e+00 0.000000e+00 0.000000e+00)) ((3.369086e+07 3.378687e+07 -9.463294e+01) (-6.968723e+02 2.331508e+04 3.135339e+03) (0.000000e+00 0.000000e+00 0.000000e+00))
5.103000e+02	((6.768241e+05 -6.792519e+05 -1.623138e-13) (4.683374e+02 3.989196e+00 8.130872e-18) (0.000000e+00 0.000000e+00 0.000000e+00)) ((3.396259e+07 3.384120e+07 -9.377008e+01) (-1.994598e+02 2.341687e+04 2.282103e+03) (0.000000e+00 0.000000e+00 0.000000e+00))
5.104000e+02	((6.777158e+05 -6.849683e+05 -1.623242e-13) (4.704051e+02 -5.948189e+00 8.058791e-18) (0.000000e+00 0.000000e+00 0.000000e+00)) ((3.424841e+07 3.388579e+07 -9.294442e+01) (2.974095e+02 2.352026e+04 1.430003e+03) (0.000000e+00 0.000000e+00 0.000000e+00))
5.105000e+02	((6.794205e+05 -6.901082e+05 -1.622864e-13) (4.725067e+02 -1.587492e+01 7.989202e-18) (0.000000e+00 0.000000e+00 0.000000e+00)) ((3.450541e+07 3.397103e+07 -9.190658e+01) (7.937460e+02 2.362534e+04 5.790121e+02) (0.000000e+00 0.000000e+00 0.000000e+00))
5.106000e+02	((6.805776e+05 -6.952438e+05 -1.622479e-13) (4.746371e+02 -2.578147e+01 7.921699e-18) (0.000000e+00 0.000000e+00 0.000000e+00)) ((3.476219e+07 3.402888e+07 -9.084705e+01) (1.289074e+03 2.373185e+04 -2.700459e+02) (0.000000e+00 0.000000e+00 0.000000e+00))
5.107000e+02	((6.818416e+05 -6.992611e+05 -1.621389e-13) (4.767896e+02 -3.567063e+01 7.855395e-18) (0.000000e+00 0.000000e+00 0.000000e+00)) ((3.496305e+07 3.409208e+07 -8.957737e+01) (1.783532e+03 2.383948e+04 -1.117518e+03) (0.000000e+00 0.000000e+00 0.000000e+00))
5.108000e+02	((6.835120e+05 -7.044576e+05 -1.623241e-13) (4.789613e+02 -4.552739e+01 7.792190e-18) (0.000000e+00 0.000000e+00 0.000000e+00)) ((3.522288e+07 3.417560e+07 -8.893028e+01) (2.276369e+03 2.394807e+04 -1.963133e+03) (0.000000e+00 0.000000e+00 0.000000e+00))
5.109000e+02	((6.833147e+05 -7.100322e+05 -1.623670e-13) (4.811741e+02 -5.534788e+01 7.722878e-18) (0.000000e+00 0.000000e+00 0.000000e+00)) ((3.550161e+07 3.416574e+07 -8.764925e+01) (2.767394e+03 2.405871e+04 -2.807492e+03) (0.000000e+00 0.000000e+00 0.000000e+00))
5.110000e+02	((6.848260e+05 -7.149300e+05 -1.623414e-13) (4.834027e+02 -6.515213e+01 7.652599e-18) (0.000000e+00 0.000000e+00 0.000000e+00)) ((3.574650e+07 3.424130e+07 -8.638052e+01) (3.257606e+03 2.417014e+04 -3.650856e+03) (0.000000e+00 0.000000e+00 0.000000e+00))
5.111000e+02	((6.867356e+05 -7.169082e+05 -1.621114e-13) (4.856437e+02 -7.493073e+01 7.578054e-18) (0.000000e+00 0.000000e+00 0.000000e+00)) ((3.584541e+07 3.433678e+07 -8.447790e+01) (3.746537e+03 2.428218e+04 -4.492190e+03) (0.000000e+00 0.000000e+00 0.000000e+00))
5.112000e+02	((6.871683e+05 -7.249674e+05 -1.623484e-13) (4.879458e+02 -8.469007e+01 7.505195e-18) (0.000000e+00 0.000000e+00 0.000000e+00)) ((3.624837e+07 3.435842e+07 -8.403667e+01) (4.234504e+03 2.439729e+04 -5.333406e+03) (0.000000e+00 0.000000e+00 0.000000e+00))
5.113000e+02	((6.886605e+05 -7.288962e+05 -1.619167e-13) (4.902781e+02 -9.442227e+01 7.427820e-18) (0.000000e+00 0.000000e+00 0.000000e+00)) ((3.644481e+07 3.443303e+07 -8.244691e+01) (4.721114e+03 2.451390e+04 -6.172891e+03) (0.000000e+00 0.000000e+00 0.000000e+00))
5.114000e+02	((6.907487e+05 -7.342870e+05 -1.616518e-13) (4.926355e+02 -1.041329e+02 7.348276e-18) (0.000000e+00 0.000000e+00 0.000000e+00)) ((3.671435e+07 3.453744e+07 -8.141010e+01) (5.206645e+03 2.463178e+04 -7.010774e+03) (0.000000e+00 0.000000e+00 0.000000e+00))
5.115000e+02	((6.906638e+05 -7.389013e+05 -1.613220e-13) (4.950049e+02 -1.138171e+02 7.265550e-18) (0.000000e+00 0.000000e+00 0.000000e+00)) ((3.694506e+07 3.453319e+07 -7.962834e+01) (5.690854e+03 2.475024e+04 -7.846728e+03) (0.000000e+00 0.000000e+00 0.000000e+00))
5.116000e+02	((6.910908e+05 -7.431758e+05 -1.610628e-13) (4.973954e+02 -1.234799e+02 7.181005e-18) (0.000000e+00 0.000000e+00 0.000000e+00)) ((3.715879e+07 3.455454e+07 -7.847348e+01) (6.173995e+03 2.486977e+04 -8.681002e+03) (0.000000e+00 0.000000e+00 0.000000e+00))
5.117000e+02	((6.922570e+05 -7.457814e+05 -1.606869e-13) (4.998050e+02 -1.331176e+02 7.096547e-18) (0.000000e+00 0.000000e+00 0.000000e+00)) ((3.728907e+07 3.461285e+07 -7.693711e+01) (6.655878e+03 2.499025e+04 -9.513239e+03) (0.000000e+00 0.000000e+00 0.000000e+00))
5.118000e+02	((6.932416e+05 -7.503037e+05 -1.604833e-13) (5.022381e+02 -1.427224e+02 7.014720e-18) (0.000000e+00 0.000000e+00 0.000000e+00)) ((3.751518e+07 3.466208e+07 -7.526022e+01) (7.136119e+03 2.511190e+04 -1.034220e+04) (0.000000e+00 0.000000e+00 0.000000e+00))
5.119000e+02	((6.950559e+05 -7.540996e+05 -1.603153e-13) (5.046893e+02 -1.522978e+02 6.933812e-18) (0.000000e+00 0.000000e+00 0.000000e+00)) ((3.770498e+07 3.475280e+07 -7.390427e+01) (7.614888e+03 2.523447e+04 -1.116852e+04) (0.000000e+00 0.000000e+00 0.000000e+00))
5.120000e+02	((6.954100e+05 -7.581925e+05 -1.601899e-13) (5.071798e+02 -1.618536e+02 6.853106e-18) (0.000000e+00 0.000000e+00 0.000000e+00)) ((3.790963e+07 3.477050e+07 -7.225092e+01) (8.092680e+03 2.535899e+04 -1.199281e+04) (0.000000e+00 0.000000e+00 0.000000e+00))
5.121000e+02	((6.951029e+05 -7.617185e+05 -1.600368e-13) (5.097086e+02 -1.713853e+02 6.771813e-18) (0.000000e+00 0.000000e+00 0.000000e+00)) ((3.808593e+07 3.475514e+07 -7.054267e+01) (8.569264e+03 2.548543e+04 -1.281425e+04) (0.000000e+00 0.000000e+00 0.000000e+00))
5.122000e+02	((6.959668e+05 -7.664896e+05 -1.600222e-13) (5.122482e+02 -1.808811e+02 6.689429e-18) (0.000000e+00 0.000000e+00 0.000000e+00)) ((3.832448e+07 3.479834e+07 -6.933211e+01) (9.044053e+03 2.561241e+04 -1.363269e+04) (0.000000e+00 0.000000e+00 0.000000e+00))
5.123000e+02	((6.966893e+05 -7.700119e+05 -1.599383e-13) (5.148090e+02 -1.903516e+02 6.606509e-18) (0.000000e+00 0.000000e+00 0.000000e+00)) ((3.850059e+07 3.483446e+07 -6.792351e+01) (9.517580e+03 2.574045e+04 -1.444888e+04) (0.000000e+00 0.000000e+00 0.000000e+00))
5.124000e+02	((6.987702e+05 -7.723723e+05 -1.597949e-13) (5.173829e+02 -1.997666e+02 6.522960e-18) (0.000000e+00 0.000000e+00 0.000000e+00)) ((3.861861e+07 3.493851e+07 -6.667231e+01) (9.988330e+03 2.586915e+04 -1.526023e+04) (0.000000e+00 0.000000e+00 0.000000e+00))
5.125000e+02	((6.996790e+05 -7.763360e+05 -1.598339e-13) (5.199711e+02 -2.091577e+02 6.439505e-18) (0.000000e+00 0.000000e+00 0.000000e+00)) ((3.881680e+07 3.498395e+07 -6.565979e+01) (1.045788e+04 2.599856e+04 -1.606937e+04) (0.000000e+00 0.000000e+00 0.000000e+00))
5.126000e+02	((6.999580e+05 -7.799150e+05 -1.598676e-13) (5.225959e+02 -2.185231e+02 6.354695e-18) (0.000000e+00 0.000000e+00 0.000000e+00)) ((3.899575e+07 3.499790e+07 -6.446282e+01) (1.092615e+04 2.612979e+04 -1.687597e+04) (0.000000e+00 0.000000e+00 0.000000e+00))
5.127000e+02	((7.008458e+05 -7.823787e+05 -1.598224e-13) (5.252426e+02 -2.278478e+02 6.268604e-18) (0.000000e+00 0.000000e+00 0.000000e+00)) ((3.911894e+07 3.504229e+07 -6.281566e+01) (1.139239e+04 2.626213e+04 -1.767918e+04) (0.000000e+00 0.000000e+00 0.000000e+00))
5.128000e+02	((7.012270e+05 -7.874925e+05 -1.596587e-13) (5.279042e+02 -2.371439e+02 6.183174e-18) (0.000000e+00 0.000000e+00 0.000000e+00)) ((3.937463e+07 3.506135e+07 -6.186330e+01) (1.185720e+04 2.639521e+04 -1.847976e+04) (0.000000e+00 0.000000e+00 0.000000e+00))
5.129000e+02	((7.023831e+05 -7.905810e+05 -1.595457e-13) (5.305768e+02 -2.464373e+02 6.095116e-18) (0.000000e+00 0.000000e+00 0.000000e+00)) ((3.952905e+07 3.511916e+07 -6.035621e+01) (1.232187e+04 2.652884e+04 -1.927865e+04) (0.000000e+00 0.000000e+00 0.000000e+00))
5.130000e+02	((7.029979e+05 -7.941621e+05 -1.595043e-13) (5.332575e+02 -2.556982e+02 6.006840e-18) (0.000000e+00 0.000000e+00 0.000000e+00)) ((3.970811e+07 3.514989e+07 -5.933263e+01) (1.278491e+04 2.666287e+04 -2.007441e+04) (0.000000e+00 0.000000e+00 0.000000e+00))
5.131000e+02	((7.036242e+05 -7.972202e+05 -1.591700e-13) (5.359152e+02 -2.649301e+02 5.920070e-18) (0.000000e+00 0.000000e+00 0.000000e+00)) ((3.986101e+07 3.518121e+07 -5.800053e+01) (1.324650e+04 2.679576e+04 -2.086772e+04) (0.000000e+00 0.000000e+00 0.000000e+00))
5.132000e+02	((7.047334e+05 -7.982565e+05 -1.587415e-13) (5.386078e+02 -2.741346e+02 5.838002e-18) (0.000000e+00 0.000000e+00 0.000000e+00)) ((3.991282e+07 3.523667e+07 -5.547570e+01) (1.370673e+04 2.693039e+04 -2.165845e+04) (0.000000e+00 0.000000e+00 0.000000e+00))
5.133000e+02	((7.049132e+05 -8.016504e+05 -1.587209e-13) (5.413142e+02 -2.832710e+02 5.760581e-18) (0.000000e+00 0.000000e+00 0.000000e+00)) ((4.008252e+07 3.524566e+07 -5.463524e+01) (1.416355e+04 2.706571e+04 -2.244338e+04) (0.000000e+00 0.000000e+00 0.000000e+00))
5.134000e+02	((7.058150e+05 -8.046374e+05 -1.585647e-13) (5.440249e+02 -2.923711e+02 5.680097e-18) (0.000000e+00 0.000000e+00 0.000000e+00)) ((4.023187e+07 3.529075e+07 -5.335280e+01) (1.461856e+04 2.720125e+04 -2.322529e+04) (0.000000e+00 0.000000e+00 0.000000e+00))
5.135000e+02	((7.068029e+05 -8.063671e+05 -1.583426e-13) (5.467448e+02 -3.014310e+02 5.600898e-18) (0.000000e+00 0.000000e+00 0.000000e+00)) ((4.031835e+07 3.534014e+07 -5.218849e+01) (1.507155e+04 2.733724e+04 -2.400371e+04) (0.000000e+00 0.000000e+00 0.000000e+00))
5.136000e+02	((7.076959e+05 -8.111159e+05 -1.582572e-13) (5.494732e+02 -3.104576e+02 5.525423e-18) (0.000000e+00 0.000000e+00 0.000000e+00)) ((4.055579e+07 3.538480e+07 -5.113930e+01) (1.552288e+04 2.747366e+04 -2.477925e+04) (0.000000e+00 0.000000e+00 0.000000e+00))
5.137000e+02	((7.083409e+05 -8.121959e+05 -1.579309e-13) (5.522077e+02 -3.194382e+02 5.452578e-18) (0.000000e+00 0.000000e+00 0.000000e+00)) ((4.060979e+07 3.541705e+07 -4.965406e+01) (1.597191e+04 2.761039e+04 -2.555090e+04) (0.000000e+00 0.000000e+00 0.000000e+00))
5.138000e+02	((7.093704e+05 -8.139968e+05 -1.576113e-13) (5.549492e+02 -3.283711e+02 5.384872e-18) (0.000000e+00 0.000000e+00 0.000000e+00)) ((4.069984e+07 3.546852e+07 -4.796374e+01) (1.641855e+04 2.774746e+04 -2.631809e+04) (0.000000e+00 0.000000e+00 0.000000e+00))
5.139000e+02	((7.094457e+05 -8.139561e+05 -1.572221e-13) (5.577049e+02 -3.372748e+02 5.320959e-18) (0.000000e+00 0.000000e+00 0.000000e+00)) ((4.069781e+07 3.547228e+07 -4.617642e+01) (1.686374e+04 2.788524e+04 -2.708210e+04) (0.000000e+00 0.000000e+00 0.000000e+00))
5.140000e+02	((7.104126e+05 -8.168148e+05 -1.569869e-13) (5.604811e+02 -3.461238e+02 5.261795e-18) (0.000000e+00 0.000000e+00 0.000000e+00)) ((4.084074e+07 3.552063e+07 -4.478985e+01) (1.730619e+04 2.802406e+04 -2.784070e+04) (0.000000e+00 0.000000e+00 0.000000e+00))
5.141000e+02	((7.115635e+05 -8.172696e+05 -1.565469e-13) (5.632616e+02 -3.549002e+02 5.205324e-18) (0.000000e+00 0.000000e+00 0.000000e+00)) ((4.086348e+07 3.557818e+07 -4.329103e+01) (1.774501e+04 2.816308e+04 -2.859330e+04) (0.000000e+00 0.000000e+00 0.000000e+00))
5.142000e+02	((7.111012e+05 -8.240147e+05 -1.565928e-13) (5.660419e+02 -3.636330e+02 5.153708e-18) (0.000000e+00 0.000000e+00 0.000000e+00)) ((4.120073e+07 3.555506e+07 -4.234646e+01) (1.818165e+04 2.830210e+04 -2.934214e+04) (0.000000e+00 0.000000e+00 0.000000e+00))
5.143000e+02	((7.111144e+05 -8.260663e+05 -1.562495e-13) (5.688182e+02 -3.723348e+02 5.103444e-18) (0.000000e+00 0.000000e+00 0.000000e+00)) ((4.130331e+07 3.555572e+07 -4.091507e+01) (1.861674e+04 2.844091e+04 -3.008828e+04) (0.000000e+00 0.000000e+00 0.000000e+00))
5.144000e+02	((7.123027e+05 -8.286366e+05 -1.559554e-13) (5.715950e+02 -3.809899e+02 5.057045e-18) (0.000000e+00 0.000000e+00 0.000000e+00)) ((4.143183e+07 3.561514e+07 -3.962843e+01) (1.904949e+04 2.857975e+04 -3.083035e+04) (0.000000e+00 0.000000e+00 0.000000e+00))
5.145000e+02	((7.138266e+05 -8.292863e+05 -1.554037e-13) (5.743747e+02 -3.895890e+02 5.014429e-18) (0.000000e+00 0.000000e+00 0.000000e+00)) ((4.146431e+07 3.569133e+07 -3.765532e+01) (1.947945e+04 2.871874e+04 -3.156756e+04) (0.000000e+00 0.000000e+00 0.000000e+00))
5.146000e+02	((7.146566e+05 -8.318301e+05 -1.551911e-13) (5.771610e+02 -3.981293e+02 4.978241e-18) (0.000000e+00 0.000000e+00 0.000000e+00)) ((4.159151e+07 3.573283e+07 -3.678084e+01) (1.990646e+04 2.885805e+04 -3.229979e+04) (0.000000e+00 0.000000e+00 0.000000e+00))
5.147000e+02	((7.143929e+05 -8.334240e+05 -1.548520e-13) (5.799456e+02 -4.066251e+02 4.940195e-18) (0.000000e+00 0.000000e+00 0.000000e+00)) ((4.167120e+07 3.571964e+07 -3.598818e+01) (2.033125e+04 2.899728e+04 -3.302838e+04) (0.000000e+00 0.000000e+00 0.000000e+00))
5.148000e+02	((7.150297e+05 -8.356099e+05 -1.545133e-13) (5.827301e+02 -4.150740e+02 4.905901e-18) (0.000000e+00 0.000000e+00 0.000000e+00)) ((4.178049e+07 3.575148e+07 -3.496908e+01) (2.075370e+04 2.913651e+04 -3.375305e+04) (0.000000e+00 0.000000e+00 0.000000e+00))
5.149000e+02	((7.157681e+05 -8.365773e+05 -1.539869e-13) (5.855165e+02 -4.234539e+02 4.876241e-18) (0.000000e+00 0.000000e+00 0.000000e+00)) ((4.182886e+07 3.578841e+07 -3.307459e+01) (2.117270e+04 2.927582e+04 -3.447209e+04) (0.000000e+00 0.000000e+00 0.000000e+00))
5.150000e+02	((7.163635e+05 -8.372979e+05 -1.534976e-13) (5.883029e+02 -4.317756e+02 4.850337e-18) (0.000000e+00 0.000000e+00 0.000000e+00)) ((4.186490e+07 3.581817e+07 -3.152594e+01) (2.158878e+04 2.941514e+04 -3.518631e+04) (0.000000e+00 0.000000e+00 0.000000e+00))
5.151000e+02	((7.167785e+05 -8.396528e+05 -1.531154e-13) (5.910881e+02 -4.400409e+02 4.827843e-18) (0.000000e+00 0.000000e+00 0.000000e+00)) ((4.198264e+07 3.583893e+07 -3.022267e+01) (2.200204e+04 2.955440e+04 -3.589586e+04) (0.000000e+00 0.000000e+00 0.000000e+00))
5.152000e+02	((7.173184e+05 -8.403727e+05 -1.526488e-13) (5.938677e+02 -4.482460e+02 4.807949e-18) (0.000000e+00 0.000000e+00 0.000000e+00)) ((4.201863e+07 3.586592e+07 -2.877278e+01) (2.241230e+04 2.969339e+04 -3.660035e+04) (0.000000e+00 0.000000e+00 0.000000e+00))
5.153000e+02	((7.179027e+05 -8.417945e+05 -1.522340e-13) (5.966450e+02 -4.563973e+02 4.788830e-18) (0.000000e+00 0.000000e+00 0.000000e+00)) ((4.208972e+07 3.589513e+07 -2.752363e+01) (2.281987e+04 2.983225e+04 -3.730022e+04) (0.000000e+00 0.000000e+00 0.000000e+00))
5.154000e+02	((7.180039e+05 -8.428494e+05 -1.517904e-13) (5.994151e+02 -4.644914e+02 4.770841e-18) (0.000000e+00 0.000000e+00 0.000000e+00)) ((4.214247e+07 3.590020e+07 -2.611725e+01) (2.322457e+04 2.997075e+04 -3.799509e+04) (0.000000e+00 0.000000e+00 0.000000e+00))
5.155000e+02	((7.181942e+05 -8.439652e+05 -1.513722e-13) (6.021651e+02 -4.725299e+02 4.753091e-18) (0.000000e+00 0.000000e+00 0.000000e+00)) ((4.219826e+07 3.590971e+07 -2.507496e+01) (2.362649e+04 3.010826e+04 -3.868474e+04) (0.000000e+00 0.000000e+00 0.000000e+00))
5.156000e+02	((7.204804e+05 -8.436354e+05 -1.507925e-13) (6.049369e+02 -4.805023e+02 4.739115e-18) (0.000000e+00 0.000000e+00 0.000000e+00)) ((4.218177e+07 3.602402e+07 -2.302810e+01) (2.402511e+04 3.024685e+04 -3.936962e+04) (0.000000e+00 0.000000e+00 0.000000e+00))
5.157000e+02	((7.203725e+05 -8.467285e+05 -1.505214e-13) (6.077198e+02 -4.884048e+02 4.726267e-18) (0.000000e+00 0.000000e+00 0.000000e+00)) ((4.233643e+07 3.601863e+07 -2.186979e+01) (2.442024e+04 3.038599e+04 -4.004885e+04) (0.000000e+00 0.000000e+00 0.000000e+00))
5.158000e+02	((7.203588e+05 -8.455741e+05 -1.499635e-13) (6.104823e+02 -4.962507e+02 4.706055e-18) (0.000000e+00 0.000000e+00 0.000000e+00)) ((4.227871e+07 3.601794e+07 -2.010116e+01) (2.481254e+04 3.052412e+04 -4.072316e+04) (0.000000e+00 0.000000e+00 0.000000e+00))
5.159000e+02	((7.211799e+05 -8.477831e+05 -1.495265e-13) (6.132421e+02 -5.040217e+02 4.680981e-18) (0.000000e+00 0.000000e+00 0.000000e+00)) ((4.238916e+07 3.605900e+07 -1.864025e+01) (2.520109e+04 3.066210e+04 -4.139121e+04) (0.000000e+00 0.000000e+00 0.000000e+00))
5.160000e+02	((7.214426e+05 -8.484066e+05 -1.490378e-13) (6.159930e+02 -5.117415e+02 4.668801e-18) (0.000000e+00 0.000000e+00 0.000000e+00)) ((4.242033e+07 3.607213e+07 -1.709983e+01) (2.558707e+04 3.079965e+04 -4.205533e+04) (0.000000e+00 0.000000e+00 0.000000e+00))
5.161000e+02	((7.213491e+05 -8.488153e+05 -1.485664e-13) (6.187245e+02 -5.193955e+02 4.656522e-18) (0.000000e+00 0.000000e+00 0.000000e+00)) ((4.244076e+07 3.606745e+07 -1.558941e+01) (2.596977e+04 3.093623e+04 -4.271392e+04) (0.000000e+00 0.000000e+00 0.000000e+00))
5.162000e+02	((7.233625e+05 -8.488808e+05 -1.479889e-13) (6.214332e+02 -5.269808e+02 4.644127e-18) (0.000000e+00 0.000000e+00 0.000000e+00)) ((4.244404e+07 3.616812e+07 -1.383589e+01) (2.634904e+04 3.107166e+04 -4.336675e+04) (0.000000e+00 0.000000e+00 0.000000e+00))
5.163000e+02	((7.230369e+05 -8.507052e+05 -1.477034e-13) (6.241498e+02 -5.345210e+02 4.635297e-18) (0.000000e+00 0.000000e+00 0.000000e+00)) ((4.253526e+07 3.615185e+07 -1.325381e+01) (2.672605e+04 3.120749e+04 -4.401530e+04) (0.000000e+00 0.000000e+00 0.000000e+00))
5.164000e+02	((7.235637e+05 -8.492649e+05 -1.469775e-13) (6.268500e+02 -5.419865e+02 4.623871e-18) (0.000000e+00 0.000000e+00 0.000000e+00)) ((4.246324e+07 3.617818e+07 -1.035791e+01) (2.709933e+04 3.134250e+04 -4.465747e+04) (0.000000e+00 0.000000e+00 0.000000e+00))
5.165000e+02	((7.237078e+05 -8.493637e+05 -1.464801e-13) (6.295414e+02 -5.493764e+02 4.612375e-18) (0.000000e+00 0.000000e+00 0.000000e+00)) ((4.246818e+07 3.618539e+07 -8.854558e+00) (2.746882e+04 3.147707e+04 -4.529359e+04) (0.000000e+00 0.000000e+00 0.000000e+00))
5.166000e+02	((7.239989e+05 -8.493336e+05 -1.459948e-13) (6.322221e+02 -5.567044e+02 4.599037e-18) (0.000000e+00 0.000000e+00 0.000000e+00)) ((4.246668e+07 3.619994e+07 -7.085990e+00) (2.783522e+04 3.161111e+04 -4.592438e+04) (0.000000e+00 0.000000e+00 0.000000e+00))
5.167000e+02	((7.245268e+05 -8.484149e+05 -1.454653e-13) (6.349097e+02 -5.639702e+02 4.581601e-18) (0.000000e+00 0.000000e+00 0.000000e+00)) ((4.242074e+07 3.622634e+07 -5.326840e+00) (2.819851e+04 3.174549e+04 -4.654947e+04) (0.000000e+00 0.000000e+00 0.000000e+00))
5.168000e+02	((7.246306e+05 -8.487334e+05 -1.450325e-13) (6.375926e+02 -5.711609e+02 4.564597e-18) (0.000000e+00 0.000000e+00 0.000000e+00)) ((4.243667e+07 3.623153e+07 -3.984514e+00) (2.855805e+04 3.187963e+04 -4.716851e+04) (0.000000e+00 0.000000e+00 0.000000e+00))
5.169000e+02	((7.253014e+05 -8.477144e+05 -1.445193e-13) (6.402728e+02 -5.782779e+02 4.546994e-18) (0.000000e+00 0.000000e+00 0.000000e+00)) ((4.238572e+07 3.626507e+07 -2.193242e+00) (2.891389e+04 3.201364e+04 -4.778161e+04) (0.000000e+00 0.000000e+00 0.000000e+00))
5.170000e+02	((7.257260e+05 -8.471613e+05 -1.440507e-13) (6.429405e+02 -5.853249e+02 4.528594e-18) (0.000000e+00 0.000000e+00 0.000000e+00)) ((4.235807e+07 3.628630e+07 -4.768358e-01) (2.926625e+04 3.214702e+04 -4.838869e+04) (0.000000e+00 0.000000e+00 0.000000e+00))
5.171000e+02	((7.262375e+05 -8.470946e+05 -1.436060e-13) (6.455946e+02 -5.922988e+02 4.509587e-18) (0.000000e+00 0.000000e+00 0.000000e+00)) ((4.235473e+07 3.631188e+07 1.361236e+00) (2.961494e+04 3.227973e+04 -4.898949e+04) (0.000000e+00 0.000000e+00 0.000000e+00))