# Forces     
# CofR       : (0.000000e+00 0.000000e+00 0.000000e+00)
# Time       forces(pressure viscous porous) moment(pressure viscous porous)
2.500000e-01	((5.802049e-01 2.055498e-04 1.015810e-18) (1.329938e+00 5.517354e-05 -8.478820e-21) (0.000000e+00 0.000000e+00 0.000000e+00)) ((-1.027749e-04 2.901024e-01 4.761619e-10) (-2.758677e-05 6.649692e-01 1.269066e-05) (0.000000e+00 0.000000e+00 0.000000e+00))
5.000000e-01	((1.069046e+00 2.549047e-05 1.104589e-19) (9.380394e-01 4.848446e-05 7.931312e-21) (0.000000e+00 0.000000e+00 0.000000e+00)) ((-1.274524e-05 5.345228e-01 -1.077078e-09) (-2.424223e-05 4.690197e-01 -2.020277e-06) (0.000000e+00 0.000000e+00 0.000000e+00))
7.500000e-01	((1.037539e+00 6.664548e-06 1.301404e-19) (7.824855e-01 5.478134e-05 6.297619e-21) (0.000000e+00 0.000000e+00 0.000000e+00)) ((-3.332274e-06 5.187695e-01 -1.070884e-09) (-2.739067e-05 3.912428e-01 6.226211e-05) (0.000000e+00 0.000000e+00 0.000000e+00))
1.000000e+00	((1.062760e+00 1.022018e-04 1.363094e-19) (6.963289e-01 5.259195e-05 5.740303e-21) (0.000000e+00 0.000000e+00 0.000000e+00)) ((-5.110092e-05 5.313800e-01 -8.816155e-10) (-2.629598e-05 3.481645e-01 4.960352e-05) (0.000000e+00 0.000000e+00 0.000000e+00))
1.250000e+00	((1.108671e+00 2.385721e-04 1.359130e-19) (6.419052e-01 5.002561e-05 5.629800e-21) (0.000000e+00 0.000000e+00 0.000000e+00)) ((-1.192860e-04 5.543357e-01 -4.817004e-10) (-2.501281e-05 3.209526e-01 2.386050e-05) (0.000000e+00 0.000000e+00 0.000000e+00))
1.500000e+00	((1.161425e+00 1.713820e-04 1.328719e-19) (6.050144e-01 4.095828e-05 5.710872e-21) (0.000000e+00 0.000000e+00 0.000000e+00)) ((-8.569101e-05 5.807127e-01 -2.199304e-10) (-2.047914e-05 3.025072e-01 1.450552e-06) (0.000000e+00 0.000000e+00 0.000000e+00))
1.750000e+00	((1.212469e+00 3.014916e-04 1.285101e-19) (5.788784e-01 4.107565e-05 5.835461e-21) (0.000000e+00 0.000000e+00 0.000000e+00)) ((-1.507458e-04 6.062345e-01 1.211175e-10) (-2.053783e-05 2.894392e-01 -9.984342e-06) (0.000000e+00 0.000000e+00 0.000000e+00))
2.000000e+00	((1.257907e+00 3.879331e-04 1.235443e-19) (5.596356e-01 4.915687e-05 5.938188e-21) (0.000000e+00 0.000000e+00 0.000000e+00)) ((-1.939665e-04 6.289537e-01 2.942051e-10) (-2.457843e-05 2.798178e-01 -1.444990e-05) (0.000000e+00 0.000000e+00 0.000000e+00))
2.250000e+00	((1.295468e+00 4.453785e-04 1.183781e-19) (5.449435e-01 5.794844e-05 5.965418e-21) (0.000000e+00 0.000000e+00 0.000000e+00)) ((-2.226892e-04 6.477338e-01 3.598692e-10) (-2.897422e-05 2.724718e-01 -1.603174e-05) (0.000000e+00 0.000000e+00 0.000000e+00))
2.500000e+00	((1.324617e+00 4.544610e-04 1.134882e-19) (5.333152e-01 6.478065e-05 5.912602e-21) (0.000000e+00 0.000000e+00 0.000000e+00)) ((-2.272305e-04 6.623083e-01 4.138255e-10) (-3.239033e-05 2.666576e-01 -1.593123e-05) (0.000000e+00 0.000000e+00 0.000000e+00))
2.750000e+00	((1.345675e+00 4.340147e-04 1.089469e-19) (5.238076e-01 6.807036e-05 5.793630e-21) (0.000000e+00 0.000000e+00 0.000000e+00)) ((-2.170074e-04 6.728376e-01 4.200301e-10) (-3.403518e-05 2.619038e-01 -1.488210e-05) (0.000000e+00 0.000000e+00 0.000000e+00))
3.000000e+00	((1.359415e+00 4.005774e-04 1.048918e-19) (5.157895e-01 6.896978e-05 5.626077e-21) (0.000000e+00 0.000000e+00 0.000000e+00)) ((-2.002887e-04 6.797074e-01 4.540848e-10) (-3.448489e-05 2.578948e-01 -1.343810e-05) (0.000000e+00 0.000000e+00 0.000000e+00))
3.250000e+00	((1.367083e+00 3.890102e-04 1.012529e-19) (5.088461e-01 6.955592e-05 5.432355e-21) (0.000000e+00 0.000000e+00 0.000000e+00)) ((-1.945051e-04 6.835415e-01 4.491088e-10) (-3.477796e-05 2.544231e-01 -1.188638e-05) (0.000000e+00 0.000000e+00 0.000000e+00))
3.500000e+00	((1.369934e+00 3.956163e-04 9.802778e-20) (5.026953e-01 7.373952e-05 5.228895e-21) (0.000000e+00 0.000000e+00 0.000000e+00)) ((-1.978082e-04 6.849671e-01 4.869937e-10) (-3.686976e-05 2.513477e-01 -6.792807e-06) (0.000000e+00 0.000000e+00 0.000000e+00))
3.750000e+00	((1.368829e+00 3.906377e-04 9.516092e-20) (4.971435e-01 7.807067e-05 5.021079e-21) (0.000000e+00 0.000000e+00 0.000000e+00)) ((-1.953188e-04 6.844146e-01 5.167802e-10) (-3.903533e-05 2.485718e-01 -2.319789e-06) (0.000000e+00 0.000000e+00 0.000000e+00))
4.000000e+00	((1.364935e+00 3.802416e-04 9.259965e-20) (4.920588e-01 8.027700e-05 4.818999e-21) (0.000000e+00 0.000000e+00 0.000000e+00)) ((-1.901208e-04 6.824677e-01 5.445865e-10) (-4.013850e-05 2.460294e-01 4.118894e-07) (0.000000e+00 0.000000e+00 0.000000e+00))
4.250000e+00	((1.359054e+00 3.656341e-04 9.029240e-20) (4.873499e-01 8.117202e-05 4.625846e-21) (0.000000e+00 0.000000e+00 0.000000e+00)) ((-1.828170e-04 6.795272e-01 5.929254e-10) (-4.058601e-05 2.436749e-01 2.542650e-06) (0.000000e+00 0.000000e+00 0.000000e+00))
4.500000e+00	((1.351847e+00 3.433042e-04 8.818323e-20) (4.829564e-01 8.075643e-05 4.445664e-21) (0.000000e+00 0.000000e+00 0.000000e+00)) ((-1.716521e-04 6.759235e-01 6.289404e-10) (-4.037822e-05 2.414782e-01 4.437395e-06) (0.000000e+00 0.000000e+00 0.000000e+00))
4.750000e+00	((1.343758e+00 3.089583e-04 8.626592e-20) (4.788360e-01 7.906568e-05 4.276174e-21) (0.000000e+00 0.000000e+00 0.000000e+00)) ((-1.544791e-04 6.718791e-01 6.256961e-10) (-3.953284e-05 2.394180e-01 6.183071e-06) (0.000000e+00 0.000000e+00 0.000000e+00))
5.000000e+00	((1.335216e+00 2.789049e-04 8.449354e-20) (4.749587e-01 7.616435e-05 4.119585e-21) (0.000000e+00 0.000000e+00 0.000000e+00)) ((-1.394525e-04 6.676080e-01 6.330293e-10) (-3.808217e-05 2.374793e-01 7.848734e-06) (0.000000e+00 0.000000e+00 0.000000e+00))
5.250000e+00	((1.326460e+00 2.412292e-04 8.283960e-20) (4.713013e-01 7.249526e-05 3.975505e-21) (0.000000e+00 0.000000e+00 0.000000e+00)) ((-1.206146e-04 6.632302e-01 6.053059e-10) (-3.624763e-05 2.356506e-01 9.399455e-06) (0.000000e+00 0.000000e+00 0.000000e+00))
5.500000e+00	((1.317708e+00 1.994911e-04 8.129315e-20) (4.678438e-01 6.794473e-05 3.841739e-21) (0.000000e+00 0.000000e+00 0.000000e+00)) ((-9.974556e-05 6.588538e-01 5.675975e-10) (-3.397236e-05 2.339219e-01 1.085652e-05) (0.000000e+00 0.000000e+00 0.000000e+00))
5.750000e+00	((1.309089e+00 1.554049e-04 7.983499e-20) (4.645717e-01 6.267313e-05 3.718676e-21) (0.000000e+00 0.000000e+00 0.000000e+00)) ((-7.770247e-05 6.545445e-01 5.214145e-10) (-3.133656e-05 2.322859e-01 1.219847e-05) (0.000000e+00 0.000000e+00 0.000000e+00))
6.000000e+00	((1.300703e+00 1.136862e-04 7.845651e-20) (4.614726e-01 5.681590e-05 3.605099e-21) (0.000000e+00 0.000000e+00 0.000000e+00)) ((-5.684310e-05 6.503515e-01 4.727217e-10) (-2.840795e-05 2.307363e-01 1.343804e-05) (0.000000e+00 0.000000e+00 0.000000e+00))
6.250000e+00	((1.292589e+00 6.708093e-05 7.715061e-20) (4.585365e-01 5.045162e-05 3.500008e-21) (0.000000e+00 0.000000e+00 0.000000e+00)) ((-3.354047e-05 6.462943e-01 4.062339e-10) (-2.522581e-05 2.292683e-01 1.457618e-05) (0.000000e+00 0.000000e+00 0.000000e+00))
6.500000e+00	((1.284746e+00 2.009289e-05 7.590880e-20) (4.557515e-01 4.371135e-05 3.401857e-21) (0.000000e+00 0.000000e+00 0.000000e+00)) ((-1.004645e-05 6.423731e-01 3.145822e-10) (-2.185568e-05 2.278758e-01 1.559201e-05) (0.000000e+00 0.000000e+00 0.000000e+00))
6.750000e+00	((1.277230e+00 -1.560592e-05 7.472680e-20) (4.531090e-01 3.650394e-05 3.310692e-21) (0.000000e+00 0.000000e+00 0.000000e+00)) ((7.802961e-06 6.386149e-01 1.738430e-10) (-1.825197e-05 2.265545e-01 1.691665e-05) (0.000000e+00 0.000000e+00 0.000000e+00))
7.000000e+00	((1.270036e+00 -5.710286e-05 7.360026e-20) (4.506001e-01 2.949618e-05 3.226745e-21) (0.000000e+00 0.000000e+00 0.000000e+00)) ((2.855143e-05 6.350178e-01 2.608882e-11) (-1.474809e-05 2.253000e-01 1.780583e-05) (0.000000e+00 0.000000e+00 0.000000e+00))
7.250000e+00	((1.263129e+00 -9.588565e-05 7.252675e-20) (4.482174e-01 2.255963e-05 3.147745e-21) (0.000000e+00 0.000000e+00 0.000000e+00)) ((4.794283e-05 6.315644e-01 -1.396798e-10) (-1.127982e-05 2.241087e-01 1.837797e-05) (0.000000e+00 0.000000e+00 0.000000e+00))
7.500000e+00	((1.256549e+00 -1.339484e-04 7.149967e-20) (4.459524e-01 1.574331e-05 3.073067e-21) (0.000000e+00 0.000000e+00 0.000000e+00)) ((6.697419e-05 6.282746e-01 -3.008855e-10) (-7.871655e-06 2.229762e-01 1.868957e-05) (0.000000e+00 0.000000e+00 0.000000e+00))
7.750000e+00	((1.250217e+00 -1.572424e-04 7.051676e-20) (4.437982e-01 9.230996e-06 3.001797e-21) (0.000000e+00 0.000000e+00 0.000000e+00)) ((7.862122e-05 6.251084e-01 -4.337197e-10) (-4.615498e-06 2.218991e-01 1.872507e-05) (0.000000e+00 0.000000e+00 0.000000e+00))
8.000000e+00	((1.244170e+00 -1.960096e-04 6.957346e-20) (4.417476e-01 3.031584e-06 2.935133e-21) (0.000000e+00 0.000000e+00 0.000000e+00)) ((9.800482e-05 6.220848e-01 -5.405734e-10) (-1.515792e-06 2.208738e-01 1.852005e-05) (0.000000e+00 0.000000e+00 0.000000e+00))
8.250000e+00	((1.238364e+00 -2.268953e-04 6.866807e-20) (4.397939e-01 -2.895703e-06 2.871953e-21) (0.000000e+00 0.000000e+00 0.000000e+00)) ((1.134477e-04 6.191818e-01 -5.960781e-10) (1.447852e-06 2.198969e-01 1.810269e-05) (0.000000e+00 0.000000e+00 0.000000e+00))
8.500000e+00	((1.232785e+00 -2.522513e-04 6.779745e-20) (4.379314e-01 -8.582076e-06 2.812328e-21) (0.000000e+00 0.000000e+00 0.000000e+00)) ((1.261256e-04 6.163925e-01 -6.015347e-10) (4.291038e-06 2.189657e-01 1.753343e-05) (0.000000e+00 0.000000e+00 0.000000e+00))
8.750000e+00	((1.227468e+00 -2.836221e-04 6.696320e-20) (4.361552e-01 -1.440905e-05 2.756400e-21) (0.000000e+00 0.000000e+00 0.000000e+00)) ((1.418110e-04 6.137338e-01 -5.942386e-10) (7.204524e-06 2.180776e-01 1.688283e-05) (0.000000e+00 0.000000e+00 0.000000e+00))
9.000000e+00	((1.222335e+00 -2.994935e-04 6.616394e-20) (4.344596e-01 -2.022230e-05 2.702827e-21) (0.000000e+00 0.000000e+00 0.000000e+00)) ((1.497467e-04 6.111675e-01 -5.834621e-10) (1.011115e-05 2.172298e-01 1.623740e-05) (0.000000e+00 0.000000e+00 0.000000e+00))
9.250000e+00	((1.217417e+00 -3.218402e-04 6.539640e-20) (4.328395e-01 -2.617050e-05 2.652207e-21) (0.000000e+00 0.000000e+00 0.000000e+00)) ((1.609201e-04 6.087084e-01 -5.563509e-10) (1.308525e-05 2.164197e-01 1.560912e-05) (0.000000e+00 0.000000e+00 0.000000e+00))
9.500000e+00	((1.212691e+00 -3.430757e-04 6.465800e-20) (4.312911e-01 -3.221986e-05 2.604225e-21) (0.000000e+00 0.000000e+00 0.000000e+00)) ((1.715378e-04 6.063456e-01 -5.645926e-10) (1.610993e-05 2.156456e-01 1.504864e-05) (0.000000e+00 0.000000e+00 0.000000e+00))
9.750000e+00	((1.208151e+00 -3.645267e-04 6.394535e-20) (4.298098e-01 -3.809367e-05 2.558394e-21) (0.000000e+00 0.000000e+00 0.000000e+00)) ((1.822634e-04 6.040756e-01 -5.914696e-10) (1.904683e-05 2.149049e-01 1.443556e-05) (0.000000e+00 0.000000e+00 0.000000e+00))
1.000000e+01	((1.203766e+00 -3.973073e-04 6.326183e-20) (4.283913e-01 -4.365651e-05 2.514910e-21) (0.000000e+00 0.000000e+00 0.000000e+00)) ((1.986536e-04 6.018830e-01 -5.895316e-10) (2.182826e-05 2.141956e-01 1.376406e-05) (0.000000e+00 0.000000e+00 0.000000e+00))
1.025000e+01	((1.199558e+00 -3.937323e-04 6.260124e-20) (4.270325e-01 -4.869762e-05 2.473157e-21) (0.000000e+00 0.000000e+00 0.000000e+00)) ((1.968661e-04 5.997791e-01 -5.576772e-10) (2.434881e-05 2.135163e-01 1.291295e-05) (0.000000e+00 0.000000e+00 0.000000e+00))
1.050000e+01	((1.195490e+00 -4.009495e-04 6.196098e-20) (4.257295e-01 -5.311984e-05 2.433648e-21) (0.000000e+00 0.000000e+00 0.000000e+00)) ((2.004747e-04 5.977448e-01 -5.197352e-10) (2.655992e-05 2.128648e-01 1.189437e-05) (0.000000e+00 0.000000e+00 0.000000e+00))
1.075000e+01	((1.191570e+00 -3.984391e-04 6.134625e-20) (4.244787e-01 -5.679890e-05 2.395902e-21) (0.000000e+00 0.000000e+00 0.000000e+00)) ((1.992195e-04 5.957848e-01 -4.721216e-10) (2.839945e-05 2.122393e-01 1.070309e-05) (0.000000e+00 0.000000e+00 0.000000e+00))
1.100000e+01	((1.187773e+00 -3.937457e-04 6.075447e-20) (4.232773e-01 -5.985712e-05 2.359722e-21) (0.000000e+00 0.000000e+00 0.000000e+00)) ((1.968729e-04 5.938866e-01 -4.312899e-10) (2.992856e-05 2.116386e-01 9.401272e-06) (0.000000e+00 0.000000e+00 0.000000e+00))
1.125000e+01	((1.184111e+00 -3.888222e-04 6.017809e-20) (4.221219e-01 -6.246351e-05 2.325310e-21) (0.000000e+00 0.000000e+00 0.000000e+00)) ((1.944111e-04 5.920554e-01 -3.999120e-10) (3.123175e-05 2.110609e-01 8.024521e-06) (0.000000e+00 0.000000e+00 0.000000e+00))
1.150000e+01	((1.180562e+00 -3.688490e-04 5.963065e-20) (4.210097e-01 -6.467634e-05 2.291997e-21) (0.000000e+00 0.000000e+00 0.000000e+00)) ((1.844245e-04 5.902812e-01 -3.821993e-10) (3.233817e-05 2.105048e-01 6.630129e-06) (0.000000e+00 0.000000e+00 0.000000e+00))
1.175000e+01	((1.177121e+00 -3.730386e-04 5.908911e-20) (4.199387e-01 -6.624386e-05 2.260184e-21) (0.000000e+00 0.000000e+00 0.000000e+00)) ((1.865193e-04 5.885604e-01 -3.784252e-10) (3.312193e-05 2.099694e-01 5.230881e-06) (0.000000e+00 0.000000e+00 0.000000e+00))
1.200000e+01	((1.173795e+00 -3.581923e-04 5.857504e-20) (4.189066e-01 -6.722819e-05 2.229460e-21) (0.000000e+00 0.000000e+00 0.000000e+00)) ((1.790961e-04 5.868973e-01 -3.718964e-10) (3.361410e-05 2.094533e-01 3.837865e-06) (0.000000e+00 0.000000e+00 0.000000e+00))
1.225000e+01	((1.170562e+00 -3.327393e-04 5.807268e-20) (4.179112e-01 -6.766323e-05 2.199783e-21) (0.000000e+00 0.000000e+00 0.000000e+00)) ((1.663697e-04 5.852812e-01 -3.581428e-10) (3.383161e-05 2.089556e-01 2.446596e-06) (0.000000e+00 0.000000e+00 0.000000e+00))
1.250000e+01	((1.167438e+00 -3.219533e-04 5.758689e-20) (4.169508e-01 -6.769014e-05 2.171523e-21) (0.000000e+00 0.000000e+00 0.000000e+00)) ((1.609766e-04 5.837192e-01 -3.516042e-10) (3.384507e-05 2.084754e-01 1.050856e-06) (0.000000e+00 0.000000e+00 0.000000e+00))
1.275000e+01	((1.164411e+00 -2.974429e-04 5.712270e-20) (4.160235e-01 -6.685839e-05 2.144204e-21) (0.000000e+00 0.000000e+00 0.000000e+00)) ((1.487215e-04 5.822055e-01 -3.322824e-10) (3.342920e-05 2.080117e-01 -3.473603e-07) (0.000000e+00 0.000000e+00 0.000000e+00))
1.300000e+01	((1.161470e+00 -2.752981e-04 5.666408e-20) (4.151273e-01 -6.538704e-05 2.118045e-21) (0.000000e+00 0.000000e+00 0.000000e+00)) ((1.376490e-04 5.807349e-01 -3.087601e-10) (3.269352e-05 2.075636e-01 -1.724908e-06) (0.000000e+00 0.000000e+00 0.000000e+00))
1.325000e+01	((1.158622e+00 -2.400421e-04 5.622364e-20) (4.142617e-01 -6.311297e-05 2.092728e-21) (0.000000e+00 0.000000e+00 0.000000e+00)) ((1.200211e-04 5.793112e-01 -2.947039e-10) (3.155648e-05 2.071308e-01 -3.089400e-06) (0.000000e+00 0.000000e+00 0.000000e+00))
1.350000e+01	((1.155848e+00 -2.056876e-04 5.579816e-20) (4.134247e-01 -6.006815e-05 2.068296e-21) (0.000000e+00 0.000000e+00 0.000000e+00)) ((1.028438e-04 5.779239e-01 -2.586808e-10) (3.003407e-05 2.067124e-01 -4.391208e-06) (0.000000e+00 0.000000e+00 0.000000e+00))
1.375000e+01	((1.153168e+00 -1.680283e-04 5.538159e-20) (4.126151e-01 -5.660292e-05 2.044906e-21) (0.000000e+00 0.000000e+00 0.000000e+00)) ((8.401413e-05 5.765840e-01 -2.343045e-10) (2.830146e-05 2.063076e-01 -5.625533e-06) (0.000000e+00 0.000000e+00 0.000000e+00))
1.400000e+01	((1.150557e+00 -1.217182e-04 5.498148e-20) (4.118319e-01 -5.216026e-05 2.022113e-21) (0.000000e+00 0.000000e+00 0.000000e+00)) ((6.085908e-05 5.752787e-01 -2.003357e-10) (2.608013e-05 2.059160e-01 -6.771925e-06) (0.000000e+00 0.000000e+00 0.000000e+00))
1.425000e+01	((1.148049e+00 -9.133223e-05 5.459375e-20) (4.110741e-01 -4.735534e-05 2.000712e-21) (0.000000e+00 0.000000e+00 0.000000e+00)) ((4.566612e-05 5.740246e-01 -1.695142e-10) (2.367767e-05 2.055371e-01 -7.797326e-06) (0.000000e+00 0.000000e+00 0.000000e+00))
1.450000e+01	((1.145595e+00 -6.007608e-05 5.421188e-20) (4.103402e-01 -4.201665e-05 1.979816e-21) (0.000000e+00 0.000000e+00 0.000000e+00)) ((3.003804e-05 5.727973e-01 -1.326023e-10) (2.100833e-05 2.051701e-01 -8.702364e-06) (0.000000e+00 0.000000e+00 0.000000e+00))
1.475000e+01	((1.143220e+00 -7.670365e-06 5.384884e-20) (4.096295e-01 -3.608446e-05 1.959512e-21) (0.000000e+00 0.000000e+00 0.000000e+00)) ((3.835182e-06 5.716100e-01 -8.534627e-11) (1.804223e-05 2.048147e-01 -9.474189e-06) (0.000000e+00 0.000000e+00 0.000000e+00))
1.500000e+01	((1.140915e+00 3.644954e-05 5.348953e-20) (4.089412e-01 -2.981698e-05 1.940076e-21) (0.000000e+00 0.000000e+00 0.000000e+00)) ((-1.822477e-05 5.704577e-01 -3.473506e-11) (1.490849e-05 2.044706e-01 -1.009759e-05) (0.000000e+00 0.000000e+00 0.000000e+00))
1.525000e+01	((1.138677e+00 7.562595e-05 5.314247e-20) (4.082741e-01 -2.330174e-05 1.921357e-21) (0.000000e+00 0.000000e+00 0.000000e+00)) ((-3.781297e-05 5.693386e-01 1.666208e-11) (1.165087e-05 2.041371e-01 -1.056731e-05) (0.000000e+00 0.000000e+00 0.000000e+00))
1.550000e+01	((1.136507e+00 1.166338e-04 5.280603e-20) (4.076276e-01 -1.645043e-05 1.903212e-21) (0.000000e+00 0.000000e+00 0.000000e+00)) ((-5.831691e-05 5.682535e-01 6.922061e-11) (8.225215e-06 2.038138e-01 -1.087608e-05) (0.000000e+00 0.000000e+00 0.000000e+00))
1.575000e+01	((1.134403e+00 1.557302e-04 5.247718e-20) (4.070010e-01 -9.455803e-06 1.885839e-21) (0.000000e+00 0.000000e+00 0.000000e+00)) ((-7.786510e-05 5.672016e-01 1.243777e-10) (4.727901e-06 2.035005e-01 -1.101973e-05) (0.000000e+00 0.000000e+00 0.000000e+00))
1.600000e+01	((1.132361e+00 1.931117e-04 5.215661e-20) (4.063934e-01 -2.384659e-06 1.869075e-21) (0.000000e+00 0.000000e+00 0.000000e+00)) ((-9.655583e-05 5.661803e-01 1.815454e-10) (1.192329e-06 2.031967e-01 -1.099695e-05) (0.000000e+00 0.000000e+00 0.000000e+00))
1.625000e+01	((1.130372e+00 2.281703e-04 5.184636e-20) (4.058043e-01 4.602735e-06 1.852792e-21) (0.000000e+00 0.000000e+00 0.000000e+00)) ((-1.140852e-04 5.651862e-01 2.391730e-10) (-2.301368e-06 2.029022e-01 -1.080578e-05) (0.000000e+00 0.000000e+00 0.000000e+00))
1.650000e+01	((1.128449e+00 2.607368e-04 5.154294e-20) (4.052330e-01 1.159714e-05 1.837245e-21) (0.000000e+00 0.000000e+00 0.000000e+00)) ((-1.303684e-04 5.642245e-01 2.957026e-10) (-5.798568e-06 2.026165e-01 -1.044851e-05) (0.000000e+00 0.000000e+00 0.000000e+00))
1.675000e+01	((1.126581e+00 2.930741e-04 5.124820e-20) (4.046788e-01 1.834840e-05 1.822231e-21) (0.000000e+00 0.000000e+00 0.000000e+00)) ((-1.465370e-04 5.632907e-01 3.528523e-10) (-9.174199e-06 2.023394e-01 -9.926829e-06) (0.000000e+00 0.000000e+00 0.000000e+00))
1.700000e+01	((1.124763e+00 3.189416e-04 5.096143e-20) (4.041407e-01 2.484563e-05 1.807691e-21) (0.000000e+00 0.000000e+00 0.000000e+00)) ((-1.594708e-04 5.623817e-01 4.062452e-10) (-1.242282e-05 2.020704e-01 -9.241227e-06) (0.000000e+00 0.000000e+00 0.000000e+00))
1.725000e+01	((1.123004e+00 3.398547e-04 5.067781e-20) (4.036185e-01 3.102743e-05 1.793944e-21) (0.000000e+00 0.000000e+00 0.000000e+00)) ((-1.699274e-04 5.615021e-01 4.608525e-10) (-1.551371e-05 2.018093e-01 -8.398289e-06) (0.000000e+00 0.000000e+00 0.000000e+00))
1.750000e+01	((1.121294e+00 3.529496e-04 5.040373e-20) (4.031117e-01 3.678637e-05 1.780598e-21) (0.000000e+00 0.000000e+00 0.000000e+00)) ((-1.764748e-04 5.606469e-01 5.098907e-10) (-1.839318e-05 2.015559e-01 -7.408398e-06) (0.000000e+00 0.000000e+00 0.000000e+00))
1.775000e+01	((1.119626e+00 3.618437e-04 5.013727e-20) (4.026195e-01 4.217099e-05 1.767783e-21) (0.000000e+00 0.000000e+00 0.000000e+00)) ((-1.809219e-04 5.598128e-01 5.519908e-10) (-2.108549e-05 2.013097e-01 -6.277928e-06) (0.000000e+00 0.000000e+00 0.000000e+00))
1.800000e+01	((1.118006e+00 3.760456e-04 4.987755e-20) (4.021411e-01 4.679183e-05 1.755281e-21) (0.000000e+00 0.000000e+00 0.000000e+00)) ((-1.880228e-04 5.590028e-01 6.013942e-10) (-2.339592e-05 2.010705e-01 -5.028945e-06) (0.000000e+00 0.000000e+00 0.000000e+00))
1.825000e+01	((1.116427e+00 3.804379e-04 4.962468e-20) (4.016759e-01 5.087670e-05 1.743376e-21) (0.000000e+00 0.000000e+00 0.000000e+00)) ((-1.902190e-04 5.582137e-01 6.384733e-10) (-2.543835e-05 2.008379e-01 -3.662183e-06) (0.000000e+00 0.000000e+00 0.000000e+00))
1.850000e+01	((1.114891e+00 3.819852e-04 4.937750e-20) (4.012234e-01 5.448112e-05 1.731860e-21) (0.000000e+00 0.000000e+00 0.000000e+00)) ((-1.909926e-04 5.574457e-01 6.717469e-10) (-2.724056e-05 2.006117e-01 -2.202516e-06) (0.000000e+00 0.000000e+00 0.000000e+00))
1.875000e+01	((1.113389e+00 3.752381e-04 4.913150e-20) (4.007830e-01 5.724577e-05 1.720876e-21) (0.000000e+00 0.000000e+00 0.000000e+00)) ((-1.876191e-04 5.566946e-01 6.967957e-10) (-2.862288e-05 2.003915e-01 -6.631083e-07) (0.000000e+00 0.000000e+00 0.000000e+00))
1.900000e+01	((1.111930e+00 3.648965e-04 4.889711e-20) (4.003540e-01 5.923612e-05 1.710341e-21) (0.000000e+00 0.000000e+00 0.000000e+00)) ((-1.824482e-04 5.559650e-01 7.124132e-10) (-2.961806e-05 2.001770e-01 9.367444e-07) (0.000000e+00 0.000000e+00 0.000000e+00))
1.925000e+01	((1.110492e+00 3.524832e-04 4.866503e-20) (3.999357e-01 6.051275e-05 1.700035e-21) (0.000000e+00 0.000000e+00 0.000000e+00)) ((-1.762416e-04 5.552461e-01 7.231551e-10) (-3.025637e-05 1.999679e-01 2.571322e-06) (0.000000e+00 0.000000e+00 0.000000e+00))
1.950000e+01	((1.109095e+00 3.307846e-04 4.843754e-20) (3.995275e-01 6.136120e-05 1.690356e-21) (0.000000e+00 0.000000e+00 0.000000e+00)) ((-1.653923e-04 5.545473e-01 7.259555e-10) (-3.068060e-05 1.997638e-01 4.225769e-06) (0.000000e+00 0.000000e+00 0.000000e+00))
1.975000e+01	((1.107722e+00 3.052134e-04 4.821330e-20) (3.991289e-01 6.111816e-05 1.681049e-21) (0.000000e+00 0.000000e+00 0.000000e+00)) ((-1.526067e-04 5.538609e-01 7.155329e-10) (-3.055908e-05 1.995645e-01 5.868557e-06) (0.000000e+00 0.000000e+00 0.000000e+00))
2.000000e+01	((1.106376e+00 2.852779e-04 4.799934e-20) (3.987392e-01 6.027294e-05 1.672023e-21) (0.000000e+00 0.000000e+00 0.000000e+00)) ((-1.426390e-04 5.531882e-01 7.003307e-10) (-3.013647e-05 1.993696e-01 7.475017e-06) (0.000000e+00 0.000000e+00 0.000000e+00))
2.025000e+01	((1.105051e+00 2.579419e-04 4.778324e-20) (3.983575e-01 5.878660e-05 1.663410e-21) (0.000000e+00 0.000000e+00 0.000000e+00)) ((-1.289709e-04 5.525256e-01 6.741608e-10) (-2.939330e-05 1.991788e-01 9.026769e-06) (0.000000e+00 0.000000e+00 0.000000e+00))
2.050000e+01	((1.103742e+00 2.248924e-04 4.757844e-20) (3.979834e-01 5.668483e-05 1.655041e-21) (0.000000e+00 0.000000e+00 0.000000e+00)) ((-1.124462e-04 5.518709e-01 6.394632e-10) (-2.834241e-05 1.989917e-01 1.050406e-05) (0.000000e+00 0.000000e+00 0.000000e+00))
2.075000e+01	((1.102456e+00 1.927498e-04 4.737271e-20) (3.976160e-01 5.394010e-05 1.647085e-21) (0.000000e+00 0.000000e+00 0.000000e+00)) ((-9.637488e-05 5.512278e-01 5.959211e-10) (-2.697005e-05 1.988080e-01 1.187670e-05) (0.000000e+00 0.000000e+00 0.000000e+00))
2.100000e+01	((1.101183e+00 1.544119e-04 4.717564e-20) (3.972548e-01 5.042407e-05 1.639422e-21) (0.000000e+00 0.000000e+00 0.000000e+00)) ((-7.720594e-05 5.505913e-01 5.447271e-10) (-2.521203e-05 1.986274e-01 1.313340e-05) (0.000000e+00 0.000000e+00 0.000000e+00))
2.125000e+01	((1.099922e+00 1.220468e-04 4.697900e-20) (3.968993e-01 4.656901e-05 1.631966e-21) (0.000000e+00 0.000000e+00 0.000000e+00)) ((-6.102338e-05 5.499608e-01 4.874437e-10) (-2.328451e-05 1.984496e-01 1.425103e-05) (0.000000e+00 0.000000e+00 0.000000e+00))
2.150000e+01	((1.098676e+00 7.841356e-05 4.678739e-20) (3.965488e-01 4.208304e-05 1.624906e-21) (0.000000e+00 0.000000e+00 0.000000e+00)) ((-3.920678e-05 5.493380e-01 4.287310e-10) (-2.104152e-05 1.982744e-01 1.522572e-05) (0.000000e+00 0.000000e+00 0.000000e+00))
2.175000e+01	((1.097441e+00 4.519202e-05 4.659916e-20) (3.962031e-01 3.737377e-05 1.617963e-21) (0.000000e+00 0.000000e+00 0.000000e+00)) ((-2.259601e-05 5.487207e-01 3.649061e-10) (-1.868688e-05 1.981015e-01 1.603279e-05) (0.000000e+00 0.000000e+00 0.000000e+00))
2.200000e+01	((1.096219e+00 -5.554997e-06 4.641404e-20) (3.958618e-01 3.176124e-05 1.611420e-21) (0.000000e+00 0.000000e+00 0.000000e+00)) ((2.777498e-06 5.481096e-01 2.971456e-10) (-1.588062e-05 1.979309e-01 1.668673e-05) (0.000000e+00 0.000000e+00 0.000000e+00))
2.225000e+01	((1.095009e+00 -4.546438e-05 4.622947e-20) (3.955246e-01 2.612277e-05 1.604980e-21) (0.000000e+00 0.000000e+00 0.000000e+00)) ((2.273219e-05 5.475047e-01 2.282002e-10) (-1.306139e-05 1.977623e-01 1.716327e-05) (0.000000e+00 0.000000e+00 0.000000e+00))
2.250000e+01	((1.093810e+00 -8.918809e-05 4.605735e-20) (3.951915e-01 1.992686e-05 1.598601e-21) (0.000000e+00 0.000000e+00 0.000000e+00)) ((4.459404e-05 5.469050e-01 1.602906e-10) (-9.963429e-06 1.975957e-01 1.747171e-05) (0.000000e+00 0.000000e+00 0.000000e+00))
2.275000e+01	((1.092631e+00 -1.297866e-04 4.588109e-20) (3.948623e-01 1.330422e-05 1.592523e-21) (0.000000e+00 0.000000e+00 0.000000e+00)) ((6.489331e-05 5.463156e-01 9.051595e-11) (-6.652108e-06 1.974312e-01 1.760617e-05) (0.000000e+00 0.000000e+00 0.000000e+00))
2.300000e+01	((1.091463e+00 -1.685606e-04 4.571294e-20) (3.945374e-01 6.572214e-06 1.586403e-21) (0.000000e+00 0.000000e+00 0.000000e+00)) ((8.428029e-05 5.457317e-01 2.238134e-11) (-3.286107e-06 1.972687e-01 1.757627e-05) (0.000000e+00 0.000000e+00 0.000000e+00))
2.325000e+01	((1.090320e+00 -2.143776e-04 4.555125e-20) (3.942169e-01 -5.991012e-07 1.580539e-21) (0.000000e+00 0.000000e+00 0.000000e+00)) ((1.071888e-04 5.451599e-01 -4.576011e-11) (2.995506e-07 1.971084e-01 1.738765e-05) (0.000000e+00 0.000000e+00 0.000000e+00))
2.350000e+01	((1.089193e+00 -2.561953e-04 4.538801e-20) (3.939011e-01 -7.913577e-06 1.574725e-21) (0.000000e+00 0.000000e+00 0.000000e+00)) ((1.280977e-04 5.445967e-01 -1.126319e-10) (3.956789e-06 1.969505e-01 1.704117e-05) (0.000000e+00 0.000000e+00 0.000000e+00))
2.375000e+01	((1.088091e+00 -2.979884e-04 4.522951e-20) (3.935902e-01 -1.562632e-05 1.569021e-21) (0.000000e+00 0.000000e+00 0.000000e+00)) ((1.489942e-04 5.440453e-01 -1.801693e-10) (7.813160e-06 1.967951e-01 1.654190e-05) (0.000000e+00 0.000000e+00 0.000000e+00))
2.400000e+01	((1.087019e+00 -3.313959e-04 4.507503e-20) (3.932849e-01 -2.322387e-05 1.563446e-21) (0.000000e+00 0.000000e+00 0.000000e+00)) ((1.656980e-04 5.435096e-01 -2.397977e-10) (1.161193e-05 1.966425e-01 1.588754e-05) (0.000000e+00 0.000000e+00 0.000000e+00))
2.425000e+01	((1.085972e+00 -3.707845e-04 4.492688e-20) (3.929853e-01 -3.102012e-05 1.557977e-21) (0.000000e+00 0.000000e+00 0.000000e+00)) ((1.853922e-04 5.429858e-01 -3.023138e-10) (1.551006e-05 1.964926e-01 1.509250e-05) (0.000000e+00 0.000000e+00 0.000000e+00))
2.450000e+01	((1.084955e+00 -4.015834e-04 4.477641e-20) (3.926919e-01 -3.852587e-05 1.552669e-21) (0.000000e+00 0.000000e+00 0.000000e+00)) ((2.007917e-04 5.424775e-01 -3.625645e-10) (1.926293e-05 1.963459e-01 1.414945e-05) (0.000000e+00 0.000000e+00 0.000000e+00))
2.475000e+01	((1.083965e+00 -4.343794e-04 4.462820e-20) (3.924047e-01 -4.613030e-05 1.547493e-21) (0.000000e+00 0.000000e+00 0.000000e+00)) ((2.171897e-04 5.419825e-01 -4.203284e-10) (2.306515e-05 1.962023e-01 1.306707e-05) (0.000000e+00 0.000000e+00 0.000000e+00))
2.500000e+01	((1.083005e+00 -4.596957e-04 4.448859e-20) (3.921239e-01 -5.337646e-05 1.542392e-21) (0.000000e+00 0.000000e+00 0.000000e+00)) ((2.298478e-04 5.415026e-01 -4.763390e-10) (2.668823e-05 1.960620e-01 1.184088e-05) (0.000000e+00 0.000000e+00 0.000000e+00))
2.525000e+01	((1.082074e+00 -4.807442e-04 4.435155e-20) (3.918499e-01 -6.021232e-05 1.537419e-21) (0.000000e+00 0.000000e+00 0.000000e+00)) ((2.403721e-04 5.410370e-01 -5.303889e-10) (3.010616e-05 1.959249e-01 1.047525e-05) (0.000000e+00 0.000000e+00 0.000000e+00))
2.550000e+01	((1.081166e+00 -4.918388e-04 4.421349e-20) (3.915826e-01 -6.648304e-05 1.532471e-21) (0.000000e+00 0.000000e+00 0.000000e+00)) ((2.459194e-04 5.405830e-01 -5.812635e-10) (3.324152e-05 1.957913e-01 8.970796e-06) (0.000000e+00 0.000000e+00 0.000000e+00))
2.575000e+01	((1.080293e+00 -5.025872e-04 4.408045e-20) (3.913219e-01 -7.223251e-05 1.527816e-21) (0.000000e+00 0.000000e+00 0.000000e+00)) ((2.512936e-04 5.401464e-01 -6.293837e-10) (3.611626e-05 1.956609e-01 7.336006e-06) (0.000000e+00 0.000000e+00 0.000000e+00))
2.600000e+01	((1.079441e+00 -5.103101e-04 4.394850e-20) (3.910676e-01 -7.725235e-05 1.523259e-21) (0.000000e+00 0.000000e+00 0.000000e+00)) ((2.551550e-04 5.397206e-01 -6.732907e-10) (3.862617e-05 1.955338e-01 5.578371e-06) (0.000000e+00 0.000000e+00 0.000000e+00))
2.625000e+01	((1.078609e+00 -5.070090e-04 4.381661e-20) (3.908194e-01 -8.136011e-05 1.518707e-21) (0.000000e+00 0.000000e+00 0.000000e+00)) ((2.535045e-04 5.393047e-01 -7.120827e-10) (4.068005e-05 1.954097e-01 3.706368e-06) (0.000000e+00 0.000000e+00 0.000000e+00))
2.650000e+01	((1.077798e+00 -4.971214e-04 4.369292e-20) (3.905771e-01 -8.450543e-05 1.514167e-21) (0.000000e+00 0.000000e+00 0.000000e+00)) ((2.485607e-04 5.388990e-01 -7.458584e-10) (4.225272e-05 1.952885e-01 1.733370e-06) (0.000000e+00 0.000000e+00 0.000000e+00))
2.675000e+01	((1.077008e+00 -4.829269e-04 4.356813e-20) (3.903405e-01 -8.683857e-05 1.509774e-21) (0.000000e+00 0.000000e+00 0.000000e+00)) ((2.414634e-04 5.385040e-01 -7.714480e-10) (4.341928e-05 1.951703e-01 -3.234404e-07) (0.000000e+00 0.000000e+00 0.000000e+00))
2.700000e+01	((1.076232e+00 -4.592773e-04 4.344316e-20) (3.901092e-01 -8.799206e-05 1.505366e-21) (0.000000e+00 0.000000e+00 0.000000e+00)) ((2.296387e-04 5.381159e-01 -7.923843e-10) (4.399603e-05 1.950546e-01 -2.440988e-06) (0.000000e+00 0.000000e+00 0.000000e+00))
2.725000e+01	((1.075474e+00 -4.327604e-04 4.332549e-20) (3.898830e-01 -8.800421e-05 1.501018e-21) (0.000000e+00 0.000000e+00 0.000000e+00)) ((2.163802e-04 5.377370e-01 -8.031861e-10) (4.400211e-05 1.949415e-01 -4.593664e-06) (0.000000e+00 0.000000e+00 0.000000e+00))
2.750000e+01	((1.074729e+00 -3.989416e-04 4.320521e-20) (3.896614e-01 -8.701520e-05 1.496697e-21) (0.000000e+00 0.000000e+00 0.000000e+00)) ((1.994708e-04 5.373643e-01 -8.049838e-10) (4.350760e-05 1.948307e-01 -6.756884e-06) (0.000000e+00 0.000000e+00 0.000000e+00))
2.775000e+01	((1.073993e+00 -3.642004e-04 4.308742e-20) (3.894441e-01 -8.502548e-05 1.492367e-21) (0.000000e+00 0.000000e+00 0.000000e+00)) ((1.821002e-04 5.369967e-01 -7.971524e-10) (4.251274e-05 1.947220e-01 -8.895947e-06) (0.000000e+00 0.000000e+00 0.000000e+00))
2.800000e+01	((1.073272e+00 -3.194764e-04 4.297596e-20) (3.892309e-01 -8.199534e-05 1.488007e-21) (0.000000e+00 0.000000e+00 0.000000e+00)) ((1.597382e-04 5.366358e-01 -7.801027e-10) (4.099767e-05 1.946154e-01 -1.098935e-05) (0.000000e+00 0.000000e+00 0.000000e+00))