# Force coefficients
# liftDir    : (0.000000e+00 1.000000e+00 0.000000e+00)
# dragDir    : (1.000000e+00 0.000000e+00 0.000000e+00)
# pitchAxis  : (0.000000e+00 0.000000e+00 1.000000e+00)
# magUInf    : 1.000000e+00
# lRef       : 1.000000e+00
# Aref       : 2.000000e+00
# CofR       : (0.000000e+00 0.000000e+00 0.000000e+00)
# Time       	Cm           	Cd           	Cl           	Cl(f)        	Cl(r)        	Cm	Cd	Cl	Cl(f)	Cl(r)
3.502500e+01	-2.012898e-06	3.017039e-01	-2.696979e-02	-1.348691e-02	-1.348288e-02
3.505000e+01	-2.025512e-06	3.031740e-01	-2.688681e-02	-1.344543e-02	-1.344138e-02
3.507500e+01	-2.040992e-06	3.032669e-01	-2.700919e-02	-1.350663e-02	-1.350255e-02
3.510000e+01	-2.057125e-06	3.029148e-01	-2.715919e-02	-1.358165e-02	-1.357754e-02
3.512500e+01	-2.073373e-06	3.023864e-01	-2.734276e-02	-1.367345e-02	-1.366931e-02
3.515000e+01	-2.089823e-06	3.018272e-01	-2.748499e-02	-1.374458e-02	-1.374040e-02
