# Forces     
# CofR       : (0.000000e+00 0.000000e+00 0.000000e+00)
# Time       forces(pressure viscous porous) moment(pressure viscous porous)
5.880000e+02	((3.911965e+05 -4.701657e+04 -6.008993e-14) (9.274822e+02 -3.976668e+00 -3.037918e-18) (0.000000e+00 0.000000e+00 0.000000e+00)) ((2.350829e+06 1.955983e+07 -1.718581e+00) (1.988334e+02 4.637411e+04 -4.389952e+02) (0.000000e+00 0.000000e+00 0.000000e+00))
5.890000e+02	((3.916106e+05 -4.944424e+04 -6.017670e-14) (9.271335e+02 -7.710480e+00 -3.041947e-18) (0.000000e+00 0.000000e+00 0.000000e+00)) ((2.472212e+06 1.958053e+07 -2.348332e+00) (3.855240e+02 4.635667e+04 -7.495200e+02) (0.000000e+00 0.000000e+00 0.000000e+00))
5.900000e+02	((3.919944e+05 -5.140644e+04 -6.022033e-14) (9.267986e+02 -1.143224e+01 -3.047671e-18) (0.000000e+00 0.000000e+00 0.000000e+00)) ((2.570322e+06 1.959972e+07 -2.964182e+00) (5.716122e+02 4.633993e+04 -1.061350e+03) (0.000000e+00 0.000000e+00 0.000000e+00))
5.910000e+02	((3.924189e+05 -5.282224e+04 -6.023052e-14) (9.264759e+02 -1.511009e+01 -3.054622e-18) (0.000000e+00 0.000000e+00 0.000000e+00)) ((2.641112e+06 1.962095e+07 -3.609371e+00) (7.555045e+02 4.632379e+04 -1.371272e+03) (0.000000e+00 0.000000e+00 0.000000e+00))
5.920000e+02	((3.928728e+05 -5.394967e+04 -6.022912e-14) (9.261642e+02 -1.872071e+01 -3.063045e-18) (0.000000e+00 0.000000e+00 0.000000e+00)) ((2.697483e+06 1.964364e+07 -4.209081e+00) (9.360357e+02 4.630821e+04 -1.676764e+03) (0.000000e+00 0.000000e+00 0.000000e+00))
