# Forces     
# CofR       : (0.000000e+00 0.000000e+00 0.000000e+00)
# Time       forces(pressure viscous porous) moment(pressure viscous porous)
2.500000e-01	((5.721000e-01 -2.309503e-04 1.020537e-18) (1.329466e+00 3.717863e-05 -8.682804e-21) (0.000000e+00 0.000000e+00 0.000000e+00)) ((1.154751e-04 2.860500e-01 4.852728e-09) (-1.858931e-05 6.647332e-01 -2.460170e-05) (0.000000e+00 0.000000e+00 0.000000e+00))
5.000000e-01	((1.067329e+00 -1.606339e-04 1.106333e-19) (9.378717e-01 3.827190e-05 7.896995e-21) (0.000000e+00 0.000000e+00 0.000000e+00)) ((8.031694e-05 5.336646e-01 -4.195265e-10) (-1.913595e-05 4.689358e-01 4.597587e-05) (0.000000e+00 0.000000e+00 0.000000e+00))
