# Forces     
# CofR       : (0.000000e+00 0.000000e+00 0.000000e+00)
# Time       forces(pressure viscous porous) moment(pressure viscous porous)
2.500000e-01	((6.072565e-01 6.342659e-03 8.480345e-20) (1.213974e+00 8.768539e-04 -1.903411e-20) (0.000000e+00 0.000000e+00 0.000000e+00)) ((-3.171329e-03 3.036283e-01 3.959843e-09) (-4.384269e-04 6.069869e-01 1.638557e-04) (0.000000e+00 0.000000e+00 0.000000e+00))
5.000000e-01	((9.958358e-01 -2.484616e-04 8.387953e-21) (8.565722e-01 2.798304e-04 -1.339976e-21) (0.000000e+00 0.000000e+00 0.000000e+00)) ((1.242308e-04 4.979179e-01 1.433014e-09) (-1.399152e-04 4.282861e-01 7.307076e-05) (0.000000e+00 0.000000e+00 0.000000e+00))
7.500000e-01	((9.741001e-01 -1.655565e-04 1.021729e-20) (7.194535e-01 1.595748e-04 -1.782573e-21) (0.000000e+00 0.000000e+00 0.000000e+00)) ((8.277826e-05 4.870501e-01 7.847199e-10) (-7.978740e-05 3.597267e-01 5.007438e-05) (0.000000e+00 0.000000e+00 0.000000e+00))
1.000000e+00	((1.000935e+00 -1.945230e-04 1.095206e-20) (6.449978e-01 1.112530e-04 -2.008641e-21) (0.000000e+00 0.000000e+00 0.000000e+00)) ((9.726152e-05 5.004674e-01 4.102606e-10) (-5.562649e-05 3.224989e-01 4.230505e-05) (0.000000e+00 0.000000e+00 0.000000e+00))
1.250000e+00	((1.045881e+00 -2.127994e-04 1.129592e-20) (5.985409e-01 8.307803e-05 -2.153792e-21) (0.000000e+00 0.000000e+00 0.000000e+00)) ((1.063997e-04 5.229403e-01 2.609357e-10) (-4.153902e-05 2.992705e-01 4.002960e-05) (0.000000e+00 0.000000e+00 0.000000e+00))
1.500000e+00	((1.096083e+00 -2.477856e-04 1.146734e-20) (5.673255e-01 6.180716e-05 -2.240902e-21) (0.000000e+00 0.000000e+00 0.000000e+00)) ((1.238928e-04 5.480413e-01 2.358050e-10) (-3.090358e-05 2.836627e-01 3.633831e-05) (0.000000e+00 0.000000e+00 0.000000e+00))
1.750000e+00	((1.145082e+00 -2.641034e-04 1.154129e-20) (5.453561e-01 4.525311e-05 -2.283394e-21) (0.000000e+00 0.000000e+00 0.000000e+00)) ((1.320517e-04 5.725409e-01 1.859717e-10) (-2.262655e-05 2.726781e-01 3.339989e-05) (0.000000e+00 0.000000e+00 0.000000e+00))
2.000000e+00	((1.189460e+00 -2.711953e-04 1.155365e-20) (5.293277e-01 3.225761e-05 -2.288405e-21) (0.000000e+00 0.000000e+00 0.000000e+00)) ((1.355977e-04 5.947300e-01 1.336391e-10) (-1.612880e-05 2.646638e-01 3.077688e-05) (0.000000e+00 0.000000e+00 0.000000e+00))
2.250000e+00	((1.227510e+00 -2.763071e-04 1.152055e-20) (5.172643e-01 2.161336e-05 -2.271302e-21) (0.000000e+00 0.000000e+00 0.000000e+00)) ((1.381535e-04 6.137552e-01 4.866397e-11) (-1.080668e-05 2.586321e-01 2.839133e-05) (0.000000e+00 0.000000e+00 0.000000e+00))
2.500000e+00	((1.258546e+00 -2.828068e-04 1.145510e-20) (5.079164e-01 1.263142e-05 -2.224548e-21) (0.000000e+00 0.000000e+00 0.000000e+00)) ((1.414034e-04 6.292728e-01 -3.691017e-11) (-6.315709e-06 2.539582e-01 2.623028e-05) (0.000000e+00 0.000000e+00 0.000000e+00))
2.750000e+00	((1.282635e+00 -2.858943e-04 1.136253e-20) (5.004483e-01 4.543947e-06 -2.161577e-21) (0.000000e+00 0.000000e+00 0.000000e+00)) ((1.429471e-04 6.413173e-01 -1.324005e-10) (-2.271974e-06 2.502242e-01 2.426442e-05) (0.000000e+00 0.000000e+00 0.000000e+00))
3.000000e+00	((1.300349e+00 -2.691754e-04 1.125057e-20) (4.942675e-01 -1.622404e-06 -2.089745e-21) (0.000000e+00 0.000000e+00 0.000000e+00)) ((1.345877e-04 6.501743e-01 -1.566452e-10) (8.112022e-07 2.471338e-01 2.256659e-05) (0.000000e+00 0.000000e+00 0.000000e+00))
3.250000e+00	((1.312465e+00 -2.672002e-04 1.112609e-20) (4.890352e-01 -6.632698e-06 -2.013555e-21) (0.000000e+00 0.000000e+00 0.000000e+00)) ((1.336001e-04 6.562324e-01 -1.741575e-10) (3.316349e-06 2.445176e-01 2.075587e-05) (0.000000e+00 0.000000e+00 0.000000e+00))
3.500000e+00	((1.319785e+00 -2.610345e-04 1.099289e-20) (4.844631e-01 -1.064018e-05 -1.936816e-21) (0.000000e+00 0.000000e+00 0.000000e+00)) ((1.305173e-04 6.598926e-01 -1.692239e-10) (5.320089e-06 2.422316e-01 1.900504e-05) (0.000000e+00 0.000000e+00 0.000000e+00))
3.750000e+00	((1.323165e+00 -2.513389e-04 1.085449e-20) (4.803674e-01 -1.374643e-05 -1.861955e-21) (0.000000e+00 0.000000e+00 0.000000e+00)) ((1.256695e-04 6.615825e-01 -1.516182e-10) (6.873215e-06 2.401837e-01 1.727185e-05) (0.000000e+00 0.000000e+00 0.000000e+00))
4.000000e+00	((1.323415e+00 -2.386156e-04 1.071344e-20) (4.766226e-01 -1.601034e-05 -1.790419e-21) (0.000000e+00 0.000000e+00 0.000000e+00)) ((1.193078e-04 6.617074e-01 -1.494998e-10) (8.005169e-06 2.383113e-01 1.555858e-05) (0.000000e+00 0.000000e+00 0.000000e+00))
4.250000e+00	((1.321251e+00 -2.236366e-04 1.057210e-20) (4.731424e-01 -1.754494e-05 -1.722992e-21) (0.000000e+00 0.000000e+00 0.000000e+00)) ((1.118183e-04 6.606253e-01 -1.297729e-10) (8.772472e-06 2.365712e-01 1.389648e-05) (0.000000e+00 0.000000e+00 0.000000e+00))
4.500000e+00	((1.317294e+00 -2.099150e-04 1.043193e-20) (4.698699e-01 -1.852796e-05 -1.659955e-21) (0.000000e+00 0.000000e+00 0.000000e+00)) ((1.049575e-04 6.586472e-01 -1.174456e-10) (9.263978e-06 2.349350e-01 1.232051e-05) (0.000000e+00 0.000000e+00 0.000000e+00))
4.750000e+00	((1.312062e+00 -1.952278e-04 1.029446e-20) (4.667675e-01 -1.917457e-05 -1.601406e-21) (0.000000e+00 0.000000e+00 0.000000e+00)) ((9.761390e-05 6.560310e-01 -9.173659e-11) (9.587283e-06 2.333837e-01 1.086856e-05) (0.000000e+00 0.000000e+00 0.000000e+00))
5.000000e+00	((1.306005e+00 -1.147888e-04 1.015755e-20) (4.638074e-01 -1.448978e-05 -1.547048e-21) (0.000000e+00 0.000000e+00 0.000000e+00)) ((5.739438e-05 6.530025e-01 -7.346235e-11) (7.244892e-06 2.319037e-01 1.764812e-05) (0.000000e+00 0.000000e+00 0.000000e+00))
5.250000e+00	((1.299320e+00 -7.294004e-05 1.002623e-20) (4.609818e-01 -9.602964e-06 -1.496564e-21) (0.000000e+00 0.000000e+00 0.000000e+00)) ((3.647002e-05 6.496598e-01 -3.626190e-12) (4.801482e-06 2.304909e-01 1.917138e-05) (0.000000e+00 0.000000e+00 0.000000e+00))
5.500000e+00	((1.292355e+00 -4.055968e-05 9.899733e-21) (4.582774e-01 -4.864499e-06 -1.449746e-21) (0.000000e+00 0.000000e+00 0.000000e+00)) ((2.027984e-05 6.461774e-01 8.278090e-11) (2.432249e-06 2.291387e-01 1.932201e-05) (0.000000e+00 0.000000e+00 0.000000e+00))
5.750000e+00	((1.285286e+00 -1.435832e-05 9.778228e-21) (4.556873e-01 -5.420406e-07 -1.406274e-21) (0.000000e+00 0.000000e+00 0.000000e+00)) ((7.179162e-06 6.426428e-01 1.620586e-10) (2.710203e-07 2.278436e-01 1.908830e-05) (0.000000e+00 0.000000e+00 0.000000e+00))
6.000000e+00	((1.278250e+00 7.266663e-06 9.661709e-21) (4.532063e-01 3.218004e-06 -1.365854e-21) (0.000000e+00 0.000000e+00 0.000000e+00)) ((-3.633332e-06 6.391252e-01 2.357169e-10) (-1.609002e-06 2.266032e-01 1.881239e-05) (0.000000e+00 0.000000e+00 0.000000e+00))
6.250000e+00	((1.271335e+00 1.862924e-05 9.550493e-21) (4.508303e-01 6.329821e-06 -1.328169e-21) (0.000000e+00 0.000000e+00 0.000000e+00)) ((-9.314622e-06 6.356677e-01 3.172481e-10) (-3.164911e-06 2.254151e-01 1.860767e-05) (0.000000e+00 0.000000e+00 0.000000e+00))
6.500000e+00	((1.264601e+00 2.588475e-05 9.443929e-21) (4.485554e-01 8.791115e-06 -1.292895e-21) (0.000000e+00 0.000000e+00 0.000000e+00)) ((-1.294238e-05 6.323005e-01 3.764193e-10) (-4.395557e-06 2.242777e-01 1.850364e-05) (0.000000e+00 0.000000e+00 0.000000e+00))
6.750000e+00	((1.258088e+00 2.973301e-05 9.341856e-21) (4.463776e-01 1.059342e-05 -1.259801e-21) (0.000000e+00 0.000000e+00 0.000000e+00)) ((-1.486650e-05 6.290438e-01 4.190499e-10) (-5.296708e-06 2.231888e-01 1.850451e-05) (0.000000e+00 0.000000e+00 0.000000e+00))
7.000000e+00	((1.251800e+00 2.738074e-05 9.244342e-21) (4.442939e-01 1.173695e-05 -1.228627e-21) (0.000000e+00 0.000000e+00 0.000000e+00)) ((-1.369037e-05 6.259001e-01 4.448795e-10) (-5.868473e-06 2.221469e-01 1.858724e-05) (0.000000e+00 0.000000e+00 0.000000e+00))
7.250000e+00	((1.245753e+00 2.113787e-05 9.150942e-21) (4.423006e-01 1.232685e-05 -1.199178e-21) (0.000000e+00 0.000000e+00 0.000000e+00)) ((-1.056894e-05 6.228765e-01 4.533514e-10) (-6.163424e-06 2.211503e-01 1.874078e-05) (0.000000e+00 0.000000e+00 0.000000e+00))
7.500000e+00	((1.239945e+00 1.279758e-05 9.061372e-21) (4.403933e-01 1.234664e-05 -1.171257e-21) (0.000000e+00 0.000000e+00 0.000000e+00)) ((-6.398791e-06 6.199727e-01 4.465780e-10) (-6.173319e-06 2.201967e-01 1.892993e-05) (0.000000e+00 0.000000e+00 0.000000e+00))
7.750000e+00	((1.234370e+00 -2.629118e-06 8.975794e-21) (4.385681e-01 1.181314e-05 -1.144742e-21) (0.000000e+00 0.000000e+00 0.000000e+00)) ((1.314559e-06 6.171851e-01 4.333958e-10) (-5.906570e-06 2.192841e-01 1.915200e-05) (0.000000e+00 0.000000e+00 0.000000e+00))
8.000000e+00	((1.229023e+00 -1.799357e-05 8.893553e-21) (4.368214e-01 1.076362e-05 -1.119496e-21) (0.000000e+00 0.000000e+00 0.000000e+00)) ((8.996783e-06 6.145115e-01 4.021003e-10) (-5.381811e-06 2.184107e-01 1.938132e-05) (0.000000e+00 0.000000e+00 0.000000e+00))
8.250000e+00	((1.223889e+00 -3.631779e-05 8.814597e-21) (4.351490e-01 9.207121e-06 -1.095412e-21) (0.000000e+00 0.000000e+00 0.000000e+00)) ((1.815889e-05 6.119446e-01 3.566190e-10) (-4.603561e-06 2.175745e-01 1.962788e-05) (0.000000e+00 0.000000e+00 0.000000e+00))
8.500000e+00	((1.218956e+00 -5.941563e-05 8.739113e-21) (4.335473e-01 7.145521e-06 -1.072440e-21) (0.000000e+00 0.000000e+00 0.000000e+00)) ((2.970781e-05 6.094780e-01 3.347451e-10) (-3.572760e-06 2.167737e-01 1.989983e-05) (0.000000e+00 0.000000e+00 0.000000e+00))
8.750000e+00	((1.214218e+00 -8.631560e-05 8.666588e-21) (4.320129e-01 4.496479e-06 -1.050476e-21) (0.000000e+00 0.000000e+00 0.000000e+00)) ((4.315780e-05 6.071091e-01 3.108176e-10) (-2.248240e-06 2.160065e-01 2.018860e-05) (0.000000e+00 0.000000e+00 0.000000e+00))
9.000000e+00	((1.209660e+00 -1.146875e-04 8.596808e-21) (4.305421e-01 1.310369e-06 -1.029457e-21) (0.000000e+00 0.000000e+00 0.000000e+00)) ((5.734373e-05 6.048302e-01 2.805974e-10) (-6.551843e-07 2.152711e-01 2.047755e-05) (0.000000e+00 0.000000e+00 0.000000e+00))
9.250000e+00	((1.205276e+00 -1.462026e-04 8.529640e-21) (4.291312e-01 -2.516000e-06 -1.009321e-21) (0.000000e+00 0.000000e+00 0.000000e+00)) ((7.310130e-05 6.026378e-01 2.526040e-10) (1.258000e-06 2.145656e-01 2.076586e-05) (0.000000e+00 0.000000e+00 0.000000e+00))
9.500000e+00	((1.201074e+00 -1.545343e-04 8.463003e-21) (4.277783e-01 -6.165365e-06 -9.896733e-22) (0.000000e+00 0.000000e+00 0.000000e+00)) ((7.726716e-05 6.005372e-01 2.532815e-10) (3.082683e-06 2.138892e-01 2.210005e-05) (0.000000e+00 0.000000e+00 0.000000e+00))
9.750000e+00	((1.196999e+00 -1.899241e-04 8.400184e-21) (4.264767e-01 -1.000842e-05 -9.710517e-22) (0.000000e+00 0.000000e+00 0.000000e+00)) ((9.496207e-05 5.984997e-01 2.117695e-10) (5.004211e-06 2.132384e-01 2.317309e-05) (0.000000e+00 0.000000e+00 0.000000e+00))
1.000000e+01	((1.193066e+00 -2.264546e-04 8.339591e-21) (4.252258e-01 -1.458365e-05 -9.531852e-22) (0.000000e+00 0.000000e+00 0.000000e+00)) ((1.132273e-04 5.965329e-01 1.698835e-10) (7.291825e-06 2.126129e-01 2.390604e-05) (0.000000e+00 0.000000e+00 0.000000e+00))
1.025000e+01	((1.189266e+00 -2.687259e-04 8.281351e-21) (4.240229e-01 -1.986478e-05 -9.360277e-22) (0.000000e+00 0.000000e+00 0.000000e+00)) ((1.343630e-04 5.946328e-01 1.260481e-10) (9.932392e-06 2.120114e-01 2.445591e-05) (0.000000e+00 0.000000e+00 0.000000e+00))
1.050000e+01	((1.185592e+00 -3.139031e-04 8.225065e-21) (4.228656e-01 -2.587195e-05 -9.195300e-22) (0.000000e+00 0.000000e+00 0.000000e+00)) ((1.569515e-04 5.927959e-01 8.109868e-11) (1.293597e-05 2.114328e-01 2.485528e-05) (0.000000e+00 0.000000e+00 0.000000e+00))
1.075000e+01	((1.182037e+00 -3.600916e-04 8.170839e-21) (4.217514e-01 -3.256512e-05 -9.036283e-22) (0.000000e+00 0.000000e+00 0.000000e+00)) ((1.800458e-04 5.910185e-01 3.050324e-11) (1.628256e-05 2.108757e-01 2.511495e-05) (0.000000e+00 0.000000e+00 0.000000e+00))
1.100000e+01	((1.178595e+00 -4.085520e-04 8.118345e-21) (4.206787e-01 -3.988557e-05 -8.883146e-22) (0.000000e+00 0.000000e+00 0.000000e+00)) ((2.042760e-04 5.892977e-01 -2.379309e-11) (1.994278e-05 2.103394e-01 2.522406e-05) (0.000000e+00 0.000000e+00 0.000000e+00))
1.125000e+01	((1.175264e+00 -4.592986e-04 8.067668e-21) (4.196442e-01 -4.778534e-05 -8.735601e-22) (0.000000e+00 0.000000e+00 0.000000e+00)) ((2.296493e-04 5.876318e-01 -8.475671e-11) (2.389267e-05 2.098221e-01 2.518338e-05) (0.000000e+00 0.000000e+00 0.000000e+00))
1.150000e+01	((1.172036e+00 -5.105094e-04 8.018540e-21) (4.186462e-01 -5.616689e-05 -8.593153e-22) (0.000000e+00 0.000000e+00 0.000000e+00)) ((2.552547e-04 5.860178e-01 -1.490180e-10) (2.808344e-05 2.093231e-01 2.498099e-05) (0.000000e+00 0.000000e+00 0.000000e+00))
1.175000e+01	((1.168907e+00 -5.624078e-04 7.970961e-21) (4.176830e-01 -6.495080e-05 -8.455647e-22) (0.000000e+00 0.000000e+00 0.000000e+00)) ((2.812039e-04 5.844536e-01 -2.202762e-10) (3.247540e-05 2.088415e-01 2.460860e-05) (0.000000e+00 0.000000e+00 0.000000e+00))
1.200000e+01	((1.165875e+00 -6.113694e-04 7.924659e-21) (4.167529e-01 -7.405837e-05 -8.322770e-22) (0.000000e+00 0.000000e+00 0.000000e+00)) ((3.056847e-04 5.829377e-01 -2.897429e-10) (3.702918e-05 2.083764e-01 2.405872e-05) (0.000000e+00 0.000000e+00 0.000000e+00))
1.225000e+01	((1.162936e+00 -6.569048e-04 7.879514e-21) (4.158543e-01 -8.335297e-05 -8.194195e-22) (0.000000e+00 0.000000e+00 0.000000e+00)) ((3.284524e-04 5.814680e-01 -3.659202e-10) (4.167648e-05 2.079272e-01 2.332689e-05) (0.000000e+00 0.000000e+00 0.000000e+00))
1.250000e+01	((1.160086e+00 -7.044797e-04 7.835806e-21) (4.149859e-01 -9.279788e-05 -8.069949e-22) (0.000000e+00 0.000000e+00 0.000000e+00)) ((3.522398e-04 5.800428e-01 -4.355001e-10) (4.639894e-05 2.074929e-01 2.241350e-05) (0.000000e+00 0.000000e+00 0.000000e+00))
1.275000e+01	((1.157321e+00 -7.477737e-04 7.793148e-21) (4.141462e-01 -1.022400e-04 -7.949645e-22) (0.000000e+00 0.000000e+00 0.000000e+00)) ((3.738869e-04 5.786606e-01 -5.095706e-10) (5.111998e-05 2.070731e-01 2.131088e-05) (0.000000e+00 0.000000e+00 0.000000e+00))
1.300000e+01	((1.154640e+00 -7.870849e-04 7.751501e-21) (4.133340e-01 -1.115833e-04 -7.833054e-22) (0.000000e+00 0.000000e+00 0.000000e+00)) ((3.935425e-04 5.773202e-01 -5.808585e-10) (5.579167e-05 2.066670e-01 2.001646e-05) (0.000000e+00 0.000000e+00 0.000000e+00))
1.325000e+01	((1.152040e+00 -8.231092e-04 7.710846e-21) (4.125483e-01 -1.207333e-04 -7.720049e-22) (0.000000e+00 0.000000e+00 0.000000e+00)) ((4.115546e-04 5.760202e-01 -6.472505e-10) (6.036666e-05 2.062741e-01 1.853018e-05) (0.000000e+00 0.000000e+00 0.000000e+00))
1.350000e+01	((1.149518e+00 -8.546875e-04 7.671138e-21) (4.117878e-01 -1.295799e-04 -7.610457e-22) (0.000000e+00 0.000000e+00 0.000000e+00)) ((4.273438e-04 5.747590e-01 -7.086902e-10) (6.478997e-05 2.058939e-01 1.685835e-05) (0.000000e+00 0.000000e+00 0.000000e+00))
1.375000e+01	((1.147071e+00 -8.789006e-04 7.632136e-21) (4.110515e-01 -1.379883e-04 -7.503985e-22) (0.000000e+00 0.000000e+00 0.000000e+00)) ((4.394503e-04 5.735356e-01 -7.689424e-10) (6.899415e-05 2.055258e-01 1.500349e-05) (0.000000e+00 0.000000e+00 0.000000e+00))
1.400000e+01	((1.144696e+00 -9.006926e-04 7.594056e-21) (4.103385e-01 -1.459075e-04 -7.400632e-22) (0.000000e+00 0.000000e+00 0.000000e+00)) ((4.503463e-04 5.723482e-01 -8.220583e-10) (7.295374e-05 2.051692e-01 1.297654e-05) (0.000000e+00 0.000000e+00 0.000000e+00))
1.425000e+01	((1.142390e+00 -9.145534e-04 7.556649e-21) (4.096478e-01 -1.531611e-04 -7.300089e-22) (0.000000e+00 0.000000e+00 0.000000e+00)) ((4.572767e-04 5.711950e-01 -8.687645e-10) (7.658056e-05 2.048239e-01 1.078603e-05) (0.000000e+00 0.000000e+00 0.000000e+00))
1.450000e+01	((1.140149e+00 -9.222229e-04 7.519955e-21) (4.089784e-01 -1.597246e-04 -7.202262e-22) (0.000000e+00 0.000000e+00 0.000000e+00)) ((4.611115e-04 5.700745e-01 -9.069804e-10) (7.986228e-05 2.044892e-01 8.443878e-06) (0.000000e+00 0.000000e+00 0.000000e+00))
1.475000e+01	((1.137976e+00 -9.225437e-04 7.483835e-21) (4.083296e-01 -1.654328e-04 -7.107020e-22) (0.000000e+00 0.000000e+00 0.000000e+00)) ((4.612718e-04 5.689878e-01 -9.374629e-10) (8.271639e-05 2.041648e-01 5.966598e-06) (0.000000e+00 0.000000e+00 0.000000e+00))
1.500000e+01	((1.135864e+00 -9.163483e-04 7.448342e-21) (4.077005e-01 -1.702422e-04 -7.014235e-22) (0.000000e+00 0.000000e+00 0.000000e+00)) ((4.581741e-04 5.679322e-01 -9.608491e-10) (8.512109e-05 2.038503e-01 3.372769e-06) (0.000000e+00 0.000000e+00 0.000000e+00))
1.525000e+01	((1.133815e+00 -9.038763e-04 7.413470e-21) (4.070903e-01 -1.740265e-04 -6.923874e-22) (0.000000e+00 0.000000e+00 0.000000e+00)) ((4.519382e-04 5.669075e-01 -9.752296e-10) (8.701327e-05 2.035452e-01 6.807788e-07) (0.000000e+00 0.000000e+00 0.000000e+00))
1.550000e+01	((1.131823e+00 -8.814850e-04 7.378991e-21) (4.064983e-01 -1.767188e-04 -6.835562e-22) (0.000000e+00 0.000000e+00 0.000000e+00)) ((4.407425e-04 5.659113e-01 -9.813255e-10) (8.835942e-05 2.032491e-01 -2.091223e-06) (0.000000e+00 0.000000e+00 0.000000e+00))
1.575000e+01	((1.129888e+00 -8.548523e-04 7.345195e-21) (4.059237e-01 -1.782839e-04 -6.749539e-22) (0.000000e+00 0.000000e+00 0.000000e+00)) ((4.274261e-04 5.649440e-01 -9.775331e-10) (8.914197e-05 2.029618e-01 -4.913824e-06) (0.000000e+00 0.000000e+00 0.000000e+00))
1.600000e+01	((1.128006e+00 -8.187083e-04 7.311775e-21) (4.053659e-01 -1.785870e-04 -6.665358e-22) (0.000000e+00 0.000000e+00 0.000000e+00)) ((4.093541e-04 5.640028e-01 -9.679590e-10) (8.929351e-05 2.026829e-01 -7.766924e-06) (0.000000e+00 0.000000e+00 0.000000e+00))
1.625000e+01	((1.126177e+00 -7.757098e-04 7.278890e-21) (4.048243e-01 -1.776837e-04 -6.583206e-22) (0.000000e+00 0.000000e+00 0.000000e+00)) ((3.878549e-04 5.630887e-01 -9.425050e-10) (8.884187e-05 2.024121e-01 -1.061604e-05) (0.000000e+00 0.000000e+00 0.000000e+00))
1.650000e+01	((1.124400e+00 -7.259366e-04 7.246430e-21) (4.042982e-01 -1.754403e-04 -6.502832e-22) (0.000000e+00 0.000000e+00 0.000000e+00)) ((3.629683e-04 5.622001e-01 -9.138851e-10) (8.772016e-05 2.021491e-01 -1.344089e-05) (0.000000e+00 0.000000e+00 0.000000e+00))
1.675000e+01	((1.122671e+00 -6.696834e-04 7.214540e-21) (4.037871e-01 -1.719491e-04 -6.424339e-22) (0.000000e+00 0.000000e+00 0.000000e+00)) ((3.348417e-04 5.613355e-01 -8.632777e-10) (8.597457e-05 2.018936e-01 -1.620468e-05) (0.000000e+00 0.000000e+00 0.000000e+00))
1.700000e+01	((1.120991e+00 -6.072186e-04 7.183060e-21) (4.032905e-01 -1.671228e-04 -6.347532e-22) (0.000000e+00 0.000000e+00 0.000000e+00)) ((3.036093e-04 5.604953e-01 -8.099382e-10) (8.356139e-05 2.016452e-01 -1.888316e-05) (0.000000e+00 0.000000e+00 0.000000e+00))
1.725000e+01	((1.119356e+00 -5.379711e-04 7.152075e-21) (4.028078e-01 -1.610077e-04 -6.272674e-22) (0.000000e+00 0.000000e+00 0.000000e+00)) ((2.689855e-04 5.596781e-01 -7.447663e-10) (8.050387e-05 2.014039e-01 -2.144355e-05) (0.000000e+00 0.000000e+00 0.000000e+00))
1.750000e+01	((1.117767e+00 -4.648295e-04 7.121629e-21) (4.023385e-01 -1.536228e-04 -6.199300e-22) (0.000000e+00 0.000000e+00 0.000000e+00)) ((2.324148e-04 5.588836e-01 -6.703646e-10) (7.681139e-05 2.011692e-01 -2.384932e-05) (0.000000e+00 0.000000e+00 0.000000e+00))
1.775000e+01	((1.116218e+00 -3.861382e-04 7.091703e-21) (4.018822e-01 -1.450263e-04 -6.127490e-22) (0.000000e+00 0.000000e+00 0.000000e+00)) ((1.930691e-04 5.581089e-01 -5.834416e-10) (7.251316e-05 2.009411e-01 -2.607233e-05) (0.000000e+00 0.000000e+00 0.000000e+00))
1.800000e+01	((1.114714e+00 -3.035338e-04 7.062320e-21) (4.014383e-01 -1.352450e-04 -6.057497e-22) (0.000000e+00 0.000000e+00 0.000000e+00)) ((1.517669e-04 5.573570e-01 -4.876115e-10) (6.762250e-05 2.007192e-01 -2.808649e-05) (0.000000e+00 0.000000e+00 0.000000e+00))
1.825000e+01	((1.113247e+00 -2.186840e-04 7.033412e-21) (4.010065e-01 -1.243955e-04 -5.988683e-22) (0.000000e+00 0.000000e+00 0.000000e+00)) ((1.093420e-04 5.566233e-01 -3.832266e-10) (6.219774e-05 2.005032e-01 -2.986137e-05) (0.000000e+00 0.000000e+00 0.000000e+00))
1.850000e+01	((1.111819e+00 -1.303095e-04 7.005511e-21) (4.005862e-01 -1.125142e-04 -5.922549e-22) (0.000000e+00 0.000000e+00 0.000000e+00)) ((6.515474e-05 5.559095e-01 -2.710328e-10) (5.625712e-05 2.002931e-01 -3.136731e-05) (0.000000e+00 0.000000e+00 0.000000e+00))
1.875000e+01	((1.110430e+00 -4.031097e-05 6.977487e-21) (4.001769e-01 -9.972856e-05 -5.856294e-22) (0.000000e+00 0.000000e+00 0.000000e+00)) ((2.015548e-05 5.552148e-01 -1.515715e-10) (4.986428e-05 2.000885e-01 -3.258562e-05) (0.000000e+00 0.000000e+00 0.000000e+00))
1.900000e+01	((1.109072e+00 4.902630e-05 6.950144e-21) (3.997783e-01 -8.613469e-05 -5.791708e-22) (0.000000e+00 0.000000e+00 0.000000e+00)) ((-2.451315e-05 5.545362e-01 -2.713267e-11) (4.306734e-05 1.998891e-01 -3.349269e-05) (0.000000e+00 0.000000e+00 0.000000e+00))
1.925000e+01	((1.107745e+00 1.394354e-04 6.924117e-21) (3.993897e-01 -7.181226e-05 -5.730315e-22) (0.000000e+00 0.000000e+00 0.000000e+00)) ((-6.971772e-05 5.538726e-01 1.015495e-10) (3.590613e-05 1.996948e-01 -3.408031e-05) (0.000000e+00 0.000000e+00 0.000000e+00))
1.950000e+01	((1.106452e+00 2.278700e-04 6.897736e-21) (3.990106e-01 -5.690132e-05 -5.668043e-22) (0.000000e+00 0.000000e+00 0.000000e+00)) ((-1.139350e-04 5.532262e-01 2.308567e-10) (2.845066e-05 1.995053e-01 -3.431987e-05) (0.000000e+00 0.000000e+00 0.000000e+00))
1.975000e+01	((1.105177e+00 3.163846e-04 6.872855e-21) (3.986405e-01 -4.150610e-05 -5.609192e-22) (0.000000e+00 0.000000e+00 0.000000e+00)) ((-1.581923e-04 5.525883e-01 3.590693e-10) (2.075305e-05 1.993203e-01 -3.421741e-05) (0.000000e+00 0.000000e+00 0.000000e+00))
2.000000e+01	((1.103941e+00 4.039246e-04 6.847853e-21) (3.982788e-01 -2.572464e-05 -5.550544e-22) (0.000000e+00 0.000000e+00 0.000000e+00)) ((-2.019623e-04 5.519705e-01 4.878935e-10) (1.286232e-05 1.991394e-01 -3.375810e-05) (0.000000e+00 0.000000e+00 0.000000e+00))
2.025000e+01	((1.102720e+00 4.880200e-04 6.823429e-21) (3.979248e-01 -9.721390e-06 -5.493113e-22) (0.000000e+00 0.000000e+00 0.000000e+00)) ((-2.440100e-04 5.513599e-01 6.114177e-10) (4.860695e-06 1.989624e-01 -3.294469e-05) (0.000000e+00 0.000000e+00 0.000000e+00))
2.050000e+01	((1.101515e+00 5.660739e-04 6.800365e-21) (3.975779e-01 6.479917e-06 -5.438493e-22) (0.000000e+00 0.000000e+00 0.000000e+00)) ((-2.830369e-04 5.507575e-01 7.293971e-10) (-3.239959e-06 1.987890e-01 -3.178318e-05) (0.000000e+00 0.000000e+00 0.000000e+00))
2.075000e+01	((1.100326e+00 6.410285e-04 6.777577e-21) (3.972375e-01 2.271713e-05 -5.384550e-22) (0.000000e+00 0.000000e+00 0.000000e+00)) ((-3.205142e-04 5.501632e-01 8.369963e-10) (-1.135856e-05 1.986187e-01 -3.028061e-05) (0.000000e+00 0.000000e+00 0.000000e+00))
2.100000e+01	((1.099152e+00 7.145214e-04 6.755084e-21) (3.969027e-01 3.893112e-05 -5.331422e-22) (0.000000e+00 0.000000e+00 0.000000e+00)) ((-3.572607e-04 5.495759e-01 9.373500e-10) (-1.946556e-05 1.984513e-01 -2.846882e-05) (0.000000e+00 0.000000e+00 0.000000e+00))
2.125000e+01	((1.097987e+00 7.772516e-04 6.733447e-21) (3.965729e-01 5.497025e-05 -5.279846e-22) (0.000000e+00 0.000000e+00 0.000000e+00)) ((-3.886258e-04 5.489934e-01 1.028256e-09) (-2.748513e-05 1.982864e-01 -2.634810e-05) (0.000000e+00 0.000000e+00 0.000000e+00))
2.150000e+01	((1.096828e+00 8.382630e-04 6.712478e-21) (3.962473e-01 7.076099e-05 -5.229863e-22) (0.000000e+00 0.000000e+00 0.000000e+00)) ((-4.191315e-04 5.484142e-01 1.108386e-09) (-3.538050e-05 1.981237e-01 -2.395116e-05) (0.000000e+00 0.000000e+00 0.000000e+00))
2.175000e+01	((1.095675e+00 8.926255e-04 6.692436e-21) (3.959255e-01 8.616171e-05 -5.181631e-22) (0.000000e+00 0.000000e+00 0.000000e+00)) ((-4.463128e-04 5.478373e-01 1.181411e-09) (-4.308085e-05 1.979627e-01 -2.130832e-05) (0.000000e+00 0.000000e+00 0.000000e+00))
2.200000e+01	((1.094526e+00 9.398482e-04 6.672914e-21) (3.956068e-01 1.010316e-04 -5.134301e-22) (0.000000e+00 0.000000e+00 0.000000e+00)) ((-4.699241e-04 5.472631e-01 1.242853e-09) (-5.051582e-05 1.978034e-01 -1.843486e-05) (0.000000e+00 0.000000e+00 0.000000e+00))
2.225000e+01	((1.093383e+00 9.792703e-04 6.653999e-21) (3.952909e-01 1.152261e-04 -5.087984e-22) (0.000000e+00 0.000000e+00 0.000000e+00)) ((-4.896351e-04 5.466915e-01 1.298492e-09) (-5.761303e-05 1.976454e-01 -1.536013e-05) (0.000000e+00 0.000000e+00 0.000000e+00))
2.250000e+01	((1.092244e+00 1.008556e-03 6.636303e-21) (3.949775e-01 1.285622e-04 -5.043801e-22) (0.000000e+00 0.000000e+00 0.000000e+00)) ((-5.042778e-04 5.461221e-01 1.347897e-09) (-6.428109e-05 1.974887e-01 -1.210897e-05) (0.000000e+00 0.000000e+00 0.000000e+00))
2.275000e+01	((1.091114e+00 1.026654e-03 6.619214e-21) (3.946666e-01 1.407829e-04 -5.000210e-22) (0.000000e+00 0.000000e+00 0.000000e+00)) ((-5.133269e-04 5.455571e-01 1.392629e-09) (-7.039144e-05 1.973333e-01 -8.696287e-06) (0.000000e+00 0.000000e+00 0.000000e+00))
2.300000e+01	((1.089993e+00 1.034932e-03 6.603353e-21) (3.943584e-01 1.517026e-04 -4.958714e-22) (0.000000e+00 0.000000e+00 0.000000e+00)) ((-5.174661e-04 5.449967e-01 1.432856e-09) (-7.585130e-05 1.971792e-01 -5.138762e-06) (0.000000e+00 0.000000e+00 0.000000e+00))
2.325000e+01	((1.088887e+00 1.029057e-03 6.588018e-21) (3.940531e-01 1.610313e-04 -4.917515e-22) (0.000000e+00 0.000000e+00 0.000000e+00)) ((-5.145283e-04 5.444437e-01 1.466254e-09) (-8.051565e-05 1.970266e-01 -1.446749e-06) (0.000000e+00 0.000000e+00 0.000000e+00))
2.350000e+01	((1.087797e+00 1.011638e-03 6.574043e-21) (3.937512e-01 1.685698e-04 -4.878637e-22) (0.000000e+00 0.000000e+00 0.000000e+00)) ((-5.058188e-04 5.438987e-01 1.496073e-09) (-8.428491e-05 1.968756e-01 2.367105e-06) (0.000000e+00 0.000000e+00 0.000000e+00))
2.375000e+01	((1.086729e+00 9.774411e-04 6.560684e-21) (3.934532e-01 1.740624e-04 -4.840184e-22) (0.000000e+00 0.000000e+00 0.000000e+00)) ((-4.887205e-04 5.433647e-01 1.516031e-09) (-8.703121e-05 1.967266e-01 6.299783e-06) (0.000000e+00 0.000000e+00 0.000000e+00))
2.400000e+01	((1.085684e+00 9.325528e-04 6.548523e-21) (3.931596e-01 1.772922e-04 -4.803916e-22) (0.000000e+00 0.000000e+00 0.000000e+00)) ((-4.662764e-04 5.428421e-01 1.529404e-09) (-8.864611e-05 1.965798e-01 1.032723e-05) (0.000000e+00 0.000000e+00 0.000000e+00))
2.425000e+01	((1.084666e+00 8.692317e-04 6.537012e-21) (3.928710e-01 1.781236e-04 -4.768201e-22) (0.000000e+00 0.000000e+00 0.000000e+00)) ((-4.346158e-04 5.423331e-01 1.531686e-09) (-8.906181e-05 1.964355e-01 1.443782e-05) (0.000000e+00 0.000000e+00 0.000000e+00))
2.450000e+01	((1.083675e+00 7.947749e-04 6.526657e-21) (3.925877e-01 1.764245e-04 -4.734701e-22) (0.000000e+00 0.000000e+00 0.000000e+00)) ((-3.973875e-04 5.418375e-01 1.520215e-09) (-8.821226e-05 1.962938e-01 1.859345e-05) (0.000000e+00 0.000000e+00 0.000000e+00))
2.475000e+01	((1.082713e+00 7.054163e-04 6.516728e-21) (3.923101e-01 1.721795e-04 -4.701611e-22) (0.000000e+00 0.000000e+00 0.000000e+00)) ((-3.527082e-04 5.413564e-01 1.493773e-09) (-8.608976e-05 1.961550e-01 2.275701e-05) (0.000000e+00 0.000000e+00 0.000000e+00))
2.500000e+01	((1.081777e+00 6.067606e-04 6.507763e-21) (3.920384e-01 1.653642e-04 -4.670497e-22) (0.000000e+00 0.000000e+00 0.000000e+00)) ((-3.033803e-04 5.408884e-01 1.451481e-09) (-8.268208e-05 1.960192e-01 2.687194e-05) (0.000000e+00 0.000000e+00 0.000000e+00))
2.525000e+01	((1.080869e+00 4.942296e-04 6.499213e-21) (3.917727e-01 1.560700e-04 -4.639860e-22) (0.000000e+00 0.000000e+00 0.000000e+00)) ((-2.471148e-04 5.404345e-01 1.391685e-09) (-7.803498e-05 1.958864e-01 3.088437e-05) (0.000000e+00 0.000000e+00 0.000000e+00))
2.550000e+01	((1.079984e+00 3.768212e-04 6.491316e-21) (3.915129e-01 1.444222e-04 -4.610753e-22) (0.000000e+00 0.000000e+00 0.000000e+00)) ((-1.884106e-04 5.399919e-01 1.311627e-09) (-7.221110e-05 1.957565e-01 3.471580e-05) (0.000000e+00 0.000000e+00 0.000000e+00))
2.575000e+01	((1.079123e+00 2.495149e-04 6.483629e-21) (3.912590e-01 1.305597e-04 -4.581870e-22) (0.000000e+00 0.000000e+00 0.000000e+00)) ((-1.247575e-04 5.395617e-01 1.215725e-09) (-6.527985e-05 1.956295e-01 3.830662e-05) (0.000000e+00 0.000000e+00 0.000000e+00))
2.600000e+01	((1.078282e+00 1.198178e-04 6.476460e-21) (3.910106e-01 1.147308e-04 -4.554323e-22) (0.000000e+00 0.000000e+00 0.000000e+00)) ((-5.990890e-05 5.391412e-01 1.100257e-09) (-5.736542e-05 1.955053e-01 4.157767e-05) (0.000000e+00 0.000000e+00 0.000000e+00))
2.625000e+01	((1.077461e+00 -1.800621e-05 6.469403e-21) (3.907676e-01 9.711148e-05 -4.526790e-22) (0.000000e+00 0.000000e+00 0.000000e+00)) ((9.003104e-06 5.387307e-01 9.671977e-10) (-4.855574e-05 1.953838e-01 4.447094e-05) (0.000000e+00 0.000000e+00 0.000000e+00))
2.650000e+01	((1.076655e+00 -1.530848e-04 6.462568e-21) (3.905296e-01 7.796619e-05 -4.500206e-22) (0.000000e+00 0.000000e+00 0.000000e+00)) ((7.654238e-05 5.383277e-01 8.163341e-10) (-3.898309e-05 1.952648e-01 4.691537e-05) (0.000000e+00 0.000000e+00 0.000000e+00))
2.675000e+01	((1.075867e+00 -2.916762e-04 6.455643e-21) (3.902964e-01 5.754231e-05 -4.473462e-22) (0.000000e+00 0.000000e+00 0.000000e+00)) ((1.458381e-04 5.379337e-01 6.522259e-10) (-2.877115e-05 1.951482e-01 4.887027e-05) (0.000000e+00 0.000000e+00 0.000000e+00))
2.700000e+01	((1.075092e+00 -4.245540e-04 6.448763e-21) (3.900678e-01 3.609542e-05 -4.447407e-22) (0.000000e+00 0.000000e+00 0.000000e+00)) ((2.122770e-04 5.375461e-01 4.737114e-10) (-1.804771e-05 1.950339e-01 5.028173e-05) (0.000000e+00 0.000000e+00 0.000000e+00))
2.725000e+01	((1.074331e+00 -5.583753e-04 6.441677e-21) (3.898435e-01 1.388544e-05 -4.421062e-22) (0.000000e+00 0.000000e+00 0.000000e+00)) ((2.791877e-04 5.371657e-01 2.858015e-10) (-6.942719e-06 1.949218e-01 5.112988e-05) (0.000000e+00 0.000000e+00 0.000000e+00))
2.750000e+01	((1.073582e+00 -6.838976e-04 6.434495e-21) (3.896234e-01 -8.831344e-06 -4.395250e-22) (0.000000e+00 0.000000e+00 0.000000e+00)) ((3.419488e-04 5.367912e-01 8.820295e-11) (4.415672e-06 1.948117e-01 5.138189e-05) (0.000000e+00 0.000000e+00 0.000000e+00))
2.775000e+01	((1.072847e+00 -8.073140e-04 6.427017e-21) (3.894071e-01 -3.179283e-05 -4.369146e-22) (0.000000e+00 0.000000e+00 0.000000e+00)) ((4.036570e-04 5.364234e-01 -1.142597e-10) (1.589641e-05 1.947036e-01 5.103405e-05) (0.000000e+00 0.000000e+00 0.000000e+00))