# Forces     
# CofR       : (0.000000e+00 0.000000e+00 0.000000e+00)
# Time       forces(pressure viscous porous) moment(pressure viscous porous)
3.502500e+01	((3.693552e-01 -3.303479e-02 3.226813e-20) (2.319998e-04 -3.202128e-06 2.286838e-24) (0.000000e+00 0.000000e+00 0.000000e+00)) ((1.651739e-02 1.846776e-01 -3.887207e-07) (1.601064e-06 1.159999e-04 -2.077079e-06) (0.000000e+00 0.000000e+00 0.000000e+00))
3.505000e+01	((3.711560e-01 -3.293311e-02 3.166396e-20) (2.321233e-04 -3.232285e-06 2.258408e-24) (0.000000e+00 0.000000e+00 0.000000e+00)) ((1.646656e-02 1.855780e-01 -3.869053e-07) (1.616142e-06 1.160616e-04 -2.094347e-06) (0.000000e+00 0.000000e+00 0.000000e+00))
3.507500e+01	((3.712697e-01 -3.308299e-02 3.153635e-20) (2.322223e-04 -3.268688e-06 2.239214e-24) (0.000000e+00 0.000000e+00 0.000000e+00)) ((1.654149e-02 1.856349e-01 -3.885097e-07) (1.634344e-06 1.161111e-04 -2.111705e-06) (0.000000e+00 0.000000e+00 0.000000e+00))
3.510000e+01	((3.708383e-01 -3.326670e-02 3.152231e-20) (2.323252e-04 -3.307485e-06 2.225618e-24) (0.000000e+00 0.000000e+00 0.000000e+00)) ((1.663335e-02 1.854192e-01 -3.910797e-07) (1.653743e-06 1.161626e-04 -2.128898e-06) (0.000000e+00 0.000000e+00 0.000000e+00))
3.512500e+01	((3.701909e-01 -3.349154e-02 3.154580e-20) (2.324354e-04 -3.347800e-06 2.216233e-24) (0.000000e+00 0.000000e+00 0.000000e+00)) ((1.674577e-02 1.850955e-01 -3.940206e-07) (1.673900e-06 1.162177e-04 -2.145861e-06) (0.000000e+00 0.000000e+00 0.000000e+00))
3.515000e+01	((3.695058e-01 -3.366572e-02 3.158965e-20) (2.325527e-04 -3.388471e-06 2.209520e-24) (0.000000e+00 0.000000e+00 0.000000e+00)) ((1.683286e-02 1.847529e-01 -3.975261e-07) (1.694235e-06 1.162764e-04 -2.162507e-06) (0.000000e+00 0.000000e+00 0.000000e+00))
