# Force coefficients
# liftDir    : (0.000000e+00 1.000000e+00 0.000000e+00)
# dragDir    : (1.000000e+00 0.000000e+00 0.000000e+00)
# pitchAxis  : (0.000000e+00 0.000000e+00 1.000000e+00)
# magUInf    : 1.000000e+00
# lRef       : 1.000000e+00
# Aref       : 2.000000e+00
# CofR       : (0.000000e+00 0.000000e+00 0.000000e+00)
# Time       	Cm           	Cd           	Cl           	Cl(f)        	Cl(r)        	Cm	Cd	Cl	Cl(f)	Cl(r)
5.880000e+02	-3.597664e+02	3.201012e+05	-3.838412e+04	-1.955183e+04	-1.883229e+04
5.890000e+02	-6.137701e+02	3.204389e+05	-4.036894e+04	-2.079824e+04	-1.957070e+04
5.900000e+02	-8.688279e+02	3.207520e+05	-4.197378e+04	-2.185572e+04	-2.011806e+04
5.910000e+02	-1.122353e+03	3.210983e+05	-4.313253e+04	-2.268862e+04	-2.044391e+04
5.920000e+02	-1.372223e+03	3.214686e+05	-4.405583e+04	-2.340014e+04	-2.065569e+04
